ChemID,source_casrn,CAS,SMILES,NAME,preferred_name,iupac,MPID,dsstox_substance_id,Canonical_QSARr,InChI_Code_QSARr,InChI Key_QSARr,Salt_Solvent,Salt_Solvent_ID,Kow Reference,LogP
101525,136-45-8,136-45-8,[H]C1=NC(C(=O)OC([H])([H])C([H])([H])C([H])([H])[H])=C([H])C([H])=C1C(=O)OC([H])([H])C([H])([H])C([H])([H])[H],"DIPROPYL PYRIDINE-2,5-DICARBOXYLATE","Dipropyl 2,5-pyridinedicarboxylate",C13H17NO4,6158,DTXSID8032544,CCCOC(=O)c1c[n]c(cc1)C(=O)OCCC,"InChI=1S/C13H17NO4/c1-3-7-17-12(15)10-5-6-11(14-9-10)13(16)18-8-4-2/h5-6,9H,3-4,7-8H2,1-2H3",IITCWRFYJWUUPC-UHFFFAOYSA-N,?,,"TOMLIN,C (1994)",3.57
101526,136-60-7,136-60-7,[H]C1=C([H])C([H])=C(C(=O)OC([H])([H])C([H])([H])C([H])([H])C([H])([H])[H])C([H])=C1[H],BUTYL BENZOATE,Butyl benzoate,butyl benzoate,6159,DTXSID8040694,CCCCOC(=O)c1ccccc1,"InChI=1S/C11H14O2/c1-2-3-9-13-11(12)10-7-5-4-6-8-10/h4-8H,2-3,9H2,1H3",XSIFPSYPOVKYCO-UHFFFAOYSA-N,?,,"HANSCH,C ET AL. (1995)",3.84
101527,136-77-6,136-77-6,[H]OC1=C([H])C([H])=C(C([H])([H])C([H])([H])C([H])([H])C([H])([H])C([H])([H])C([H])([H])[H])C(O[H])=C1[H],4-HEXYLRESORCINOL,4-Hexylresorcinol,C12H18O2,6160,DTXSID1020699,CCCCCCc1ccc(O)cc1O,"InChI=1S/C12H18O2/c1-2-3-4-5-6-10-7-8-11(13)9-12(10)14/h7-9,13-14H,2-6H2,1H3",WFJIVOKAWHGMBH-UHFFFAOYSA-N,?,,"HANSCH,C ET AL. (1995)",3.45
101529,137-07-5,137-07-5,[H]SC1=C(N([H])[H])C([H])=C([H])C([H])=C1[H],O-AMINOTHIOPHENOL,2-Aminobenzenethiol,2-aminobenzenethiol,6162,DTXSID6051693,Nc1ccccc1S,"InChI=1S/C6H7NS/c7-5-3-1-2-4-6(5)8/h1-4,8H,7H2",VRVRGVPWCUEOGV-UHFFFAOYSA-N,?,,"HANSCH,C ET AL. (1995)",1.43
101530,137-17-7,137-17-7,[H]C1=C(N([H])[H])C(C([H])([H])[H])=C([H])C(C([H])([H])[H])=C1C([H])([H])[H],"2,4,5-Trimethylaniline","2,4,5-Trimethylaniline","2,4,5-trimethylaniline",6163,DTXSID9021398,Cc1cc(N)c(C)cc1C,"InChI=1S/C9H13N/c1-6-4-8(3)9(10)5-7(6)2/h4-5H,10H2,1-3H3",BMIPMKQAAJKBKP-UHFFFAOYSA-N,?,,"JAYASINGHE,DS ET AL. (1992)",2.27
101531,137-18-8,137-18-8,[H]C1=C(C([H])([H])[H])C(=O)C([H])=C(C([H])([H])[H])C1=O,"2,5-CYCLOHEXADIENE-1,4-DIONE, 2,5-DIMETHYL-","2,5-Cyclohexadiene-1,4-dione, 2,5-dimethyl-","2,5-dimethylcyclohexa-2,5-diene-1,4-dione",6164,DTXSID0059669,CC1=CC(=O)C(C)=CC1=O,"InChI=1S/C8H8O2/c1-5-3-8(10)6(2)4-7(5)9/h3-4H,1-2H3",MYKLQMNSFPAPLZ-UHFFFAOYSA-N,?,,"HANSCH,C ET AL. (1995)",1.28
101534,137-32-6,137-32-6,[H]OC([H])([H])C([H])(C([H])([H])[H])C([H])([H])C([H])([H])[H],2-METHYL-1-BUTANOL,2-Methyl-1-butanol,2-methylbutan-1-ol,6166,DTXSID5027069,CCC(C)CO,"InChI=1S/C5H12O/c1-3-5(2)4-6/h5-6H,3-4H2,1-2H3",QPRQEDXDYOZYLA-UHFFFAOYSA-N,?,,"VALVANI,SC ET AL. (1981)",1.29
101535,137-58-6,137-58-6,[H]C1=C([H])C(C([H])([H])[H])=C(N([H])C(=O)C([H])([H])N(C([H])([H])C([H])([H])[H])C([H])([H])C([H])([H])[H])C(C([H])([H])[H])=C1[H],LIDOCAINE,Lidocaine,"N-(2,6-dimethylphenyl)-N~2~,N~2~-diethylglycinamide",6167,DTXSID1045166,CCN(CC(=O)Nc1c(C)cccc1C)CC,"InChI=1S/C14H22N2O/c1-5-16(6-2)10-13(17)15-14-11(3)8-7-9-12(14)4/h7-9H,5-6,10H2,1-4H3,(H,15,17)",NNJVILVZKWQKPM-UHFFFAOYSA-N,?,,"AVDEEF,A (1997)",2.44
101536,138-38-5,138-38-5,[H]C1=C([H])C(S(=O)(=O)N([H])[H])=C([H])C([H])=C1C([H])([H])C([H])([H])[H],4-ETHYLBENZENESULFONAMIDE,4-Ethylbenzenesulfonamide,C8H11NO2S,6168,DTXSID50278752,CCc1ccc(cc1)S(N)(=O)=O,"InChI=1S/C8H11NO2S/c1-2-7-3-5-8(6-4-7)12(9,10)11/h3-6H,2H2,1H3,(H2,9,10,11)",MLTGAVXHWSDGIS-UHFFFAOYSA-N,?,,"HANSCH,C ET AL. (1995)",1.31
101539,138-56-7,138-56-7,[H]C1=C([H])C(C([H])([H])N([H])C(=O)C2=C([H])C(OC([H])([H])[H])=C(OC([H])([H])[H])C(OC([H])([H])[H])=C2[H])=C([H])C([H])=C1OC([H])([H])C([H])([H])N(C([H])([H])[H])C([H])([H])[H],TRIMETHOBENZAMIDE (TIGAN),Trimethobenzamide,"N-{4-[2-(dimethylamino)ethoxy]benzyl}-3,4,5-trimethoxybenzamide",6170,DTXSID8023711,CN(C)CCOc1ccc(CNC(=O)c2cc(OC)c(OC)c(c2)OC)cc1,"InChI=1S/C21H28N2O5/c1-23(2)10-11-28-17-8-6-15(7-9-17)14-22-21(24)16-12-18(25-3)20(27-5)19(13-16)26-4/h6-9,12-13H,10-11,14H2,1-5H3,(H,22,24)",FEZBIKUBAYAZIU-UHFFFAOYSA-N,?,,"EL TAYER,N ET AL. (1985)",2.29
101540,138-86-3|5989-27-5|5989-54-8,138-86-3|5989-27-5|5989-54-8,[H]C([H])=C(C([H])([H])[H])C1([H])C([H])([H])C([H])=C(C([H])([H])[H])C([H])([H])C1([H])[H],"LIMONENE, D-LIMONENE, S-(-)-LIMONENE",Limonene,1-methyl-4-(prop-1-en-2-yl)cyclohexene,6171|9293|9294,DTXSID2029612|DTXSID1020778|DTXSID6047078,CC1CCC(CC=1)C(C)=C,"InChI=1S/C10H16/c1-8(2)10-6-4-9(3)5-7-10/h4,10H,1,5-7H2,2-3H3",XMGQYMWWDOXHJM-UHFFFAOYSA-N,?,,"LI,J & PERDUE,EM (1995)",4.57
101541,139-40-2,139-40-2,[H]N(C1=NC(Cl)=NC(N([H])C([H])(C([H])([H])[H])C([H])([H])[H])=N1)C([H])(C([H])([H])[H])C([H])([H])[H],PROPAZINE,Propazine,"6-chloro-N,N'-di(propan-2-yl)-1,3,5-triazine-2,4-diamine",6172,DTXSID3021196,CC(C)Nc1[n]c(Cl)[n]c(NC(C)C)[n]1,"InChI=1S/C9H16ClN5/c1-5(2)11-8-13-7(10)14-9(15-8)12-6(3)4/h5-6H,1-4H3,(H2,11,12,13,14,15)",WJNRPILHGGKWCK-UHFFFAOYSA-N,?,,"HANSCH,C ET AL. (1995)",2.93
101543,139-65-1,139-65-1,[H]C1=C([H])C(N([H])[H])=C([H])C([H])=C1SC1=C([H])C([H])=C(N([H])[H])C([H])=C1[H],"4,4'-THIODIANILINE","4,4'-Thiodianiline","4,4'-sulfanediyldianiline",6174,DTXSID9021344,Nc1ccc(cc1)Sc1ccc(N)cc1,"InChI=1S/C12H12N2S/c13-9-1-5-11(6-2-9)15-12-7-3-10(14)4-8-12/h1-8H,13-14H2",ICNFHJVPAJKPHW-UHFFFAOYSA-N,?,,"HANSCH,C ET AL. (1995)",2.18
101544,139-66-2,139-66-2,[H]C1=C([H])C([H])=C(SC2=C([H])C([H])=C([H])C([H])=C2[H])C([H])=C1[H],DIPHENYLSULFIDE,Diphenyl sulfide,diphenyl sulfide,6175,DTXSID8044383,c1ccccc1Sc1ccccc1,InChI=1S/C12H10S/c1-3-7-11(8-4-1)13-12-9-5-2-6-10-12/h1-10H,LTYMSROWYAPPGB-UHFFFAOYSA-N,?,,"HANSCH,C ET AL. (1995)",4.45
101545,139-71-9,139-71-9,[H]C(=O)N([H])C1=C([H])C(Cl)=C([H])C([H])=C1[H],"FORMAMIDE, N-(3-CHLOROPHENYL)-",n-(3-chlorophenyl)formamide,C7H6ClNO,6176,DTXSID50283149,O=CNc1cccc(Cl)c1,"InChI=1S/C7H6ClNO/c8-6-2-1-3-7(4-6)9-5-10/h1-5H,(H,9,10)",ZUMJTLJZVNIVSA-UHFFFAOYSA-N,?,,"HANSCH,C ET AL. (1995)",1.9
101547,139-85-5,139-85-5,[H]OC1=C([H])C([H])=C(C([H])=O)C([H])=C1O[H],"3,4-Dihydroxybenzaldehyde","Benzaldehyde, 3,4-dihydroxy-","3,4-Dihydroxybenzaldehyde",6178,DTXSID4074512,Oc1cc(C=O)ccc1O,"InChI=1S/C7H6O3/c8-4-5-1-2-6(9)7(10)3-5/h1-4,9-10H",IBGBGRVKPALMCQ-UHFFFAOYSA-N,?,,"JIN,LJ ET AL. (1998)",1.09
101548,140-10-3|621-82-9,140-10-3|621-82-9,[H]OC(=O)/C([H])=C(\[H])C1=C([H])C([H])=C([H])C([H])=C1[H],"2-PROPENOIC ACID, 3-PHENYL-, (E)-, CINNAMIC ACID",E-Cinnamic acid,(2E)-3-phenylprop-2-enoic acid,6179|7210,DTXSID5022489|DTXSID40110056,OC(=O)C=Cc1ccccc1,"InChI=1S/C9H8O2/c10-9(11)7-6-8-4-2-1-3-5-8/h1-7H,(H,10,11)/b7-6+",WBYWAXJHAXSJNI-VOTSOKGWSA-N,?,,"HANSCH,C ET AL. (1995)",2.13
101549,140-11-4,140-11-4,[H]C1=C([H])C([H])=C(C([H])([H])OC(=O)C([H])([H])[H])C([H])=C1[H],BENZYL ACETATE,Benzyl acetate,benzyl acetate,6180,DTXSID0020151,CC(=O)OCc1ccccc1,"InChI=1S/C9H10O2/c1-8(10)11-7-9-5-3-2-4-6-9/h2-6H,7H2,1H3",QUKGYYKBILRGFE-UHFFFAOYSA-N,?,,"HANSCH,C ET AL. (1995)",1.96
101551,140-38-5,140-38-5,[H]C1=C([H])C(N([H])C(=O)N([H])[H])=C([H])C([H])=C1Cl,P-CHLOROPHENYLUREA,4-Chlorophenylurea,1-(4-chlorophenyl)urea,6182,DTXSID5041512,NC(=O)Nc1ccc(Cl)cc1,"InChI=1S/C7H7ClN2O/c8-5-1-3-6(4-2-5)10-7(9)11/h1-4H,(H3,9,10,11)",RECCURWJDVZHIH-UHFFFAOYSA-N,?,,"HANSCH,C ET AL. (1995)",1.8
101552,140-39-6,140-39-6,[H]C1=C([H])C(C([H])([H])[H])=C([H])C([H])=C1OC(=O)C([H])([H])[H],P-TOLYLACETATE,4-Tolyl acetate,4-methylphenyl acetate,6183,DTXSID0046567,Cc1ccc(cc1)OC(C)=O,"InChI=1S/C9H10O2/c1-7-3-5-9(6-4-7)11-8(2)10/h3-6H,1-2H3",CDJJKTLOZJAGIZ-UHFFFAOYSA-N,?,,"HANSCH,C ET AL. (1995)",2.11
101553,140-40-9,140-40-9,[H]C1=C([N+](=O)[O-])SC(N([H])C(=O)C([H])([H])[H])=N1,NITHIAMIDE,Nithiamide,"N-(5-nitro-1,3-thiazol-2-yl)acetamide",6184,DTXSID6046391,CC(=O)Nc1[n]cc([s]1)[N+]([O-])=O,"InChI=1S/C5H5N3O3S/c1-3(9)7-5-6-2-4(12-5)8(10)11/h2H,1H3,(H,6,7,9)",UJRRDDHEMZLWFI-UHFFFAOYSA-N,?,,"HANSCH,C ET AL. (1995)",1.3
101555,140-79-4,140-79-4,[H]C1([H])N(N=O)C([H])([H])C([H])([H])N(N=O)C1([H])[H],"N,N'-DINITROSOPIPERAZINE",Dinitrosopiperazine,"1,4-dinitrosopiperazine",6186,DTXSID0020527,O=NN1CCN(CC1)N=O,InChI=1S/C4H8N4O2/c9-5-7-1-2-8(6-10)4-3-7/h1-4H2,WNSYEWGYAFFSSQ-UHFFFAOYSA-N,?,,"HANSCH,C ET AL. (1995)",-0.85
101556,140-88-5,140-88-5,[H]C([H])=C([H])C(=O)OC([H])([H])C([H])([H])[H],ETHYL ACRYLATE,Ethyl acrylate,ethyl prop-2-enoate,6187,DTXSID4020583,CCOC(=O)C=C,"InChI=1S/C5H8O2/c1-3-5(6)7-4-2/h3H,1,4H2,2H3",JIGUQPWFLRLWPJ-UHFFFAOYSA-N,?,,"HANSCH,C ET AL. (1995)",1.32
101558,141-30-0,141-30-0,[H]C1=C([H])C(Cl)=NN=C1Cl,"Pyridazine, 3,6-dichloro-","Pyridazine, 3,6-dichloro-","3,6-Dichloropyridazine",6189,DTXSID4059704,Clc1ccc(Cl)[n][n]1,InChI=1S/C4H2Cl2N2/c5-3-1-2-4(6)8-7-3/h1-2H,GUSWJGOYDXFJSI-UHFFFAOYSA-N,?,,"LI,L ET AL. (1999)",0.7
101560,141-43-5,141-43-5,[H]OC([H])([H])C([H])([H])N([H])[H],ETHANOLAMINE,Ethanolamine,2-aminoethanol,6191,DTXSID6022000,NCCO,"InChI=1S/C2H7NO/c3-1-2-4/h4H,1-3H2",HZAXFHJVJLSVMW-UHFFFAOYSA-N,?,,"HANSCH,C ET AL. (1995)",-1.31
101561,141-62-8,141-62-8,[H]C([H])([H])[Si](O[Si](O[Si](C([H])([H])[H])(C([H])([H])[H])C([H])([H])[H])(C([H])([H])[H])C([H])([H])[H])(O[Si](C([H])([H])[H])(C([H])([H])[H])C([H])([H])[H])C([H])([H])[H],DECAMETHYLTETRASILOXANE,Decamethyltetrasiloxane,decamethyltetrasiloxane,6192,DTXSID2044551,C[Si](C)(C)O[Si](C)(C)O[Si](C)(C)O[Si](C)(C)C,"InChI=1S/C10H30O3Si4/c1-14(2,3)11-16(7,8)13-17(9,10)12-15(4,5)6/h1-10H3",YFCGDEUVHLPRCZ-UHFFFAOYSA-N,?,,SEHSC (2009),8.21
101562,141-66-2,141-66-2,[H]/C(C(=O)N(C([H])([H])[H])C([H])([H])[H])=C(/OP(=O)(OC([H])([H])[H])OC([H])([H])[H])C([H])([H])[H],DICROTOPHOS,Dicrotophos,(2E)-4-(dimethylamino)-4-oxobut-2-en-2-yl dimethyl phosphate,6193,DTXSID9023914,CC(=CC(=O)N(C)C)OP(=O)(OC)OC,"InChI=1S/C8H16NO5P/c1-7(6-8(10)9(2)3)14-15(11,12-4)13-5/h6H,1-5H3/b7-6-",VEENJGZXVHKXNB-SREVYHEPSA-N,?,,"HANSCH,C ET AL. (1995)",0.0
101564,141-82-2,141-82-2,[H]OC(=O)C([H])([H])C(=O)O[H],MALONIC ACID,Propanedioic acid,propanedioic acid,6195,DTXSID7021659,OC(=O)CC(O)=O,"InChI=1S/C3H4O4/c4-2(5)1-3(6)7/h1H2,(H,4,5)(H,6,7)",OFOBLEOULBTSOW-UHFFFAOYSA-N,?,,"HANSCH,C ET AL. (1995)",-0.81
101565,141-93-5,141-93-5,[H]C1=C([H])C(C([H])([H])C([H])([H])[H])=C([H])C(C([H])([H])C([H])([H])[H])=C1[H],M-DIETHYLBENZENE,"1,3-Diethylbenzene","1,3-diethylbenzene",6196,DTXSID1022003,CCc1cc(CC)ccc1,"InChI=1S/C10H14/c1-3-9-6-5-7-10(4-2)8-9/h5-8H,3-4H2,1-2H3",AFZZYIJIWUTJFO-UHFFFAOYSA-N,?,,"SHERBLOM,PM & EGANHOUSE,RP (1988)",4.57
101566,141-97-9,141-97-9,[H]C([H])([H])C(=O)C([H])([H])C(=O)OC([H])([H])C([H])([H])[H],ACETOACETIC ESTER,Ethyl acetoacetate,ethyl 3-oxobutanoate,6197,DTXSID2027092,CC(=O)CC(=O)OCC,"InChI=1S/C6H10O3/c1-3-9-6(8)4-5(2)7/h3-4H2,1-2H3",XYIBRDXRRQCHLP-UHFFFAOYSA-N,?,,"CATZ,P & FRIEND,D (1989)",0.25
101568,142-28-9,142-28-9,[H]C([H])(Cl)C([H])([H])C([H])([H])Cl,"1,3-DICHLOROPROPANE","1,3-Dichloropropane","1,3-dichloropropane",6199,DTXSID6022004,ClCCCCl,InChI=1S/C3H6Cl2/c4-2-1-3-5/h1-3H2,YHRUOJUYPBUZOS-UHFFFAOYSA-N,?,,"HANSCH,C ET AL. (1995)",2.0
101569,142-62-1,142-62-1,[H]OC(=O)C([H])([H])C([H])([H])C([H])([H])C([H])([H])C([H])([H])[H],HEXANOIC ACID,Hexanoic acid,hexanoic acid,6200,DTXSID7021607,CCCCCC(O)=O,"InChI=1S/C6H12O2/c1-2-3-4-5-6(7)8/h2-5H2,1H3,(H,7,8)",FUZZWVXGSFPDMH-UHFFFAOYSA-N,?,,"HANSCH,C ET AL. (1995)",1.92
101570,142-68-7,142-68-7,[H]C1([H])OC([H])([H])C([H])([H])C([H])([H])C1([H])[H],TETRAHYDROPYRAN,Tetrahydropyran,Oxane,6201,DTXSID3059719,C1CCCCO1,InChI=1S/C5H10O/c1-2-4-6-5-3-1/h1-5H2,DHXVGJBLRPWPCS-UHFFFAOYSA-N,?,,"HANSCH,C ET AL. (1995)",0.95
101572,142-84-7,142-84-7,[H]N(C([H])([H])C([H])([H])C([H])([H])[H])C([H])([H])C([H])([H])C([H])([H])[H],DIPROPYLAMINE,Dipropylamine,N-propylpropan-1-amine,6203,DTXSID2025185,CCCNCCC,"InChI=1S/C6H15N/c1-3-5-7-6-4-2/h7H,3-6H2,1-2H3",WEHWNAOGRSTTBQ-UHFFFAOYSA-N,?,,"HANSCH,C ET AL. (1995)",1.67
101573,142-96-1,142-96-1,[H]C([H])([H])C([H])([H])C([H])([H])C([H])([H])OC([H])([H])C([H])([H])C([H])([H])C([H])([H])[H],DI-N-BUTYL ETHER,Butyl ether,1-butoxybutane,6204,DTXSID1022007,CCCCOCCCC,"InChI=1S/C8H18O/c1-3-5-7-9-8-6-4-2/h3-8H2,1-2H3",DURPTKYDGMDSBL-UHFFFAOYSA-N,?,,"HANSCH,C ET AL. (1995)",3.21
101574,143-07-7,143-07-7,[H]OC(=O)C([H])([H])C([H])([H])C([H])([H])C([H])([H])C([H])([H])C([H])([H])C([H])([H])C([H])([H])C([H])([H])C([H])([H])C([H])([H])[H],DODECANOIC ACID,Dodecanoic acid,dodecanoic acid,6205,DTXSID5021590,CCCCCCCCCCCC(O)=O,"InChI=1S/C12H24O2/c1-2-3-4-5-6-7-8-9-10-11-12(13)14/h2-11H2,1H3,(H,13,14)",POULHZVOKOAJMA-UHFFFAOYSA-N,?,,SANGSTER (1993),4.6
101576,143-50-0,143-50-0,O=C1C2(Cl)C3(Cl)C4(Cl)C(Cl)(Cl)C5(Cl)C3(Cl)C1(Cl)C5(Cl)C24Cl,KEPONE,Kepone,"1,1a,3,3a,4,5,5,5a,5b,6-decachlorooctahydro-2H-1,3,4-(methanetriyl)cyclobuta[cd]pentalen-2-one",6207,DTXSID1020770,O=C1C2(Cl)C3(Cl)C4(Cl)C2(Cl)C2(Cl)C(Cl)(C3(Cl)C21Cl)C4(Cl)Cl,"InChI=1S/C10Cl10O/c11-2-1(21)3(12)6(15)4(2,13)8(17)5(2,14)7(3,16)9(6,18)10(8,19)20",LHHGDZSESBACKH-UHFFFAOYSA-N,?,,"HANSCH,C ET AL. (1995)",5.41
101577,143-62-4,143-62-4,[H]OC1([H])C([H])([H])C([H])([H])C2(C([H])([H])[H])C([H])(C([H])([H])C([H])([H])C3([H])C2([H])C([H])([H])C([H])([H])C2(C([H])([H])[H])C([H])(C4=C([H])C(=O)OC4([H])[H])C([H])([H])C([H])([H])C32O[H])C1([H])[H],DIGITOXIGENIN,Digitoxigenin,,6208,DTXSID80162276,CC12CCC(O)CC1CCC1C2CCC2(C)C(CCC21O)C1COC(=O)C=1,"InChI=1S/C23H34O4/c1-21-8-5-16(24)12-15(21)3-4-19-18(21)6-9-22(2)17(7-10-23(19,22)26)14-11-20(25)27-13-14/h11,15-19,24,26H,3-10,12-13H2,1-2H3",XZTUSOXSLKTKJQ-UHFFFAOYSA-N,?,,"HANSCH,C ET AL. (1995)",2.64
101578,143-74-8,143-74-8,[H]OC1=C([H])C([H])=C(C2(C3=C([H])C([H])=C(O[H])C([H])=C3[H])OS(=O)(=O)C3=C([H])C([H])=C([H])C([H])=C32)C([H])=C1[H],PHENOLSULPHONEPHTHALEIN,Phenol red,"4,4'-(1,1-dioxido-3H-2,1-benzoxathiole-3,3-diyl)diphenol",6209,DTXSID8022408,Oc1ccc(cc1)C1(OS(=O)(=O)c2ccccc12)c1ccc(O)cc1,"InChI=1S/C19H14O5S/c20-15-9-5-13(6-10-15)19(14-7-11-16(21)12-8-14)17-3-1-2-4-18(17)25(22,23)24-19/h1-12,20-21H",BELBBZDIHDAJOR-UHFFFAOYSA-N,?,,"HANSCH,C ET AL. (1995)",3.02
101580,144-19-4,144-19-4,[H]OC([H])([H])C(C([H])([H])[H])(C([H])([H])[H])C([H])(O[H])C([H])(C([H])([H])[H])C([H])([H])[H],"2,2,4-TRIMETHYL-1,3-PENTANEDIOL","2,2,4-Trimethyl-1,3-pentanediol","2,2,4-trimethylpentane-1,3-diol",6211,DTXSID8027113,CC(C)C(O)C(C)(C)CO,"InChI=1S/C8H18O2/c1-6(2)7(10)8(3,4)5-9/h6-7,9-10H,5H2,1-4H3",JCTXKRPTIMZBJT-UHFFFAOYSA-N,?,,CHEMICALS INSPECTION AND TESTING INSTITU (1992),1.24
101581,144-48-9,144-48-9,[H]N([H])C(=O)C([H])([H])I,IODOACETAMIDE,Iodoacetamide,2-iodoacetamide,6212,DTXSID9020742,NC(=O)CI,"InChI=1S/C2H4INO/c3-1-2(4)5/h1H2,(H2,4,5)",PGLTVOMIXTUURA-UHFFFAOYSA-N,?,,"HANSCH,C ET AL. (1995)",-0.19
101582,144-80-9,144-80-9,[H]C1=C([H])C(S(=O)(=O)N([H])C(=O)C([H])([H])[H])=C([H])C([H])=C1N([H])[H],SULFANILACETAMIDE,Sulfacetamide,N-[(4-aminophenyl)sulfonyl]acetamide,6213,DTXSID8026060,CC(=O)NS(=O)(=O)c1ccc(N)cc1,"InChI=1S/C8H10N2O3S/c1-6(11)10-14(12,13)8-4-2-7(9)3-5-8/h2-5H,9H2,1H3,(H,10,11)",SKIVFJLNDNKQPD-UHFFFAOYSA-N,?,,"HANSCH,C ET AL. (1995)",-0.96
101584,144-83-2,144-83-2,[H]C1=C([H])C([H])=C([H])C(N([H])S(=O)(=O)C2=C([H])C([H])=C(N([H])[H])C([H])=C2[H])=N1,SULFAPYRIDINE,Sulfapyridine,4-amino-N-(pyridin-2-yl)benzenesulfonamide,6215,DTXSID3026067,Nc1ccc(cc1)S(=O)(=O)Nc1cccc[n]1,"InChI=1S/C11H11N3O2S/c12-9-4-6-10(7-5-9)17(15,16)14-11-3-1-2-8-13-11/h1-8H,12H2,(H,13,14)",GECHUMIMRBOMGK-UHFFFAOYSA-N,?,,"HANSCH,C ET AL. (1995)",0.35
101585,145-13-1,145-13-1,[H]OC1([H])C([H])([H])C2=C([H])C([H])([H])C3([H])C([H])(C([H])([H])C([H])([H])C4(C([H])([H])[H])C([H])(C(=O)C([H])([H])[H])C([H])([H])C([H])([H])C34[H])C2(C([H])([H])[H])C([H])([H])C1([H])[H],PREGNENOLONE,Pregnenolone,(3beta)-3-hydroxypregn-5-en-20-one,6216,DTXSID1036541,CC(=O)C1CCC2C3CC=C4CC(O)CCC4(C)C3CCC21C,"InChI=1S/C21H32O2/c1-13(22)17-6-7-18-16-5-4-14-12-15(23)8-10-20(14,2)19(16)9-11-21(17,18)3/h4,15-19,23H,5-12H2,1-3H3",ORNBQBCIOKFOEO-UHFFFAOYSA-N,?,,"HANSCH,C ET AL. (1995)",4.22
101586,145-73-3,145-73-3,[H]OC(=O)C1([H])C2([H])OC([H])(C([H])([H])C2([H])[H])C1([H])C(=O)O[H],ENDOTHAL,Endothal,"7-oxabicyclo[2.2.1]heptane-2,3-dicarboxylic acid",6217,DTXSID7024081,OC(=O)C1C(C2CCC1O2)C(O)=O,"InChI=1S/C8H10O5/c9-7(10)5-3-1-2-4(13-3)6(5)8(11)12/h3-6H,1-2H2,(H,9,10)(H,11,12)",GXEKYRXVRROBEV-UHFFFAOYSA-N,?,,"REINERT,KH (1984)",1.91
101589,146-54-3,146-54-3,[H]C1=C([H])C([H])=C2C(=C1[H])SC1=C([H])C([H])=C(C(F)(F)F)C([H])=C1N2C([H])([H])C([H])([H])C([H])([H])N(C([H])([H])[H])C([H])([H])[H],TRIFLUPROMAZINE,Triflupromazine,"N,N-dimethyl-3-[2-(trifluoromethyl)-10H-phenothiazin-10-yl]propan-1-amine",6220,DTXSID9023704,CN(C)CCCN1c2ccccc2Sc2ccc(cc12)C(F)(F)F,"InChI=1S/C18H19F3N2S/c1-22(2)10-5-11-23-14-6-3-4-7-16(14)24-17-9-8-13(12-15(17)23)18(19,20)21/h3-4,6-9,12H,5,10-11H2,1-2H3",XSCGXQMFQXDFCW-UHFFFAOYSA-N,?,,BIOBYTE (1995),5.54
101590,146-78-1,146-78-1,[H]OC([H])([H])C1([H])OC([H])(N2C([H])=NC3=C(N([H])[H])N=C(F)N=C32)C([H])(O[H])C1([H])O[H],2-FLUOROADENOSINE,2-Fluoroadenosine,"(2R,3R,4S,5R)-2-(6-amino-2-fluoropurin-9-yl)-5-(hydroxymethyl)oxolane-3,4-diol",6221,DTXSID70163252,Nc1[n]c(F)[n]c2c1[n]c[n]2C1OC(CO)C(O)C1O,"InChI=1S/C10H12FN5O4/c11-10-14-7(12)4-8(15-10)16(2-13-4)9-6(19)5(18)3(1-17)20-9/h2-3,5-6,9,17-19H,1H2,(H2,12,14,15)",HBUBKKRHXORPQB-UHFFFAOYSA-N,?,,BIOBYTE STARLIST (2009),-0.8
101591,147-55-7,147-55-7,[H]OC(=O)C1([H])N2C(=O)C([H])(N([H])C(=O)C([H])(OC3=C([H])C([H])=C([H])C([H])=C3[H])C([H])([H])[H])C2([H])SC1(C([H])([H])[H])C([H])([H])[H],PHENETHICILLIN,Phenethicillin,"(2S,5R,6R)-3,3-dimethyl-7-oxo-6-[(2-phenoxypropanoyl)amino]-4-thia-1-azabicyclo[3.2.0]heptane-2-carboxylic acid",6222,DTXSID6023448,CC(Oc1ccccc1)C(=O)NC1C2SC(C)(C)C(C(O)=O)N2C1=O,"InChI=1S/C17H20N2O5S/c1-9(24-10-7-5-4-6-8-10)13(20)18-11-14(21)19-12(16(22)23)17(2,3)25-15(11)19/h4-9,11-12,15H,1-3H3,(H,18,20)(H,22,23)",NONJJLVGHLVQQM-UHFFFAOYSA-N,?,,"HANSCH,C ET AL. (1995)",2.2
101594,147-85-3,147-85-3,[H]OC(=O)C1([H])N([H])C([H])([H])C([H])([H])C1([H])[H],PROLINE,L-Proline,L-proline,6224,DTXSID5044021,OC(=O)C1CCCN1,"InChI=1S/C5H9NO2/c7-5(8)4-2-1-3-6-4/h4,6H,1-3H2,(H,7,8)",ONIBWKKTOPOVIA-UHFFFAOYSA-N,?,,"HANSCH,C ET AL. (1995)",-2.54
101595,147-93-3,147-93-3,[H]OC(=O)C1=C([H])C([H])=C([H])C([H])=C1S[H],2-MERCAPTOBENZOIC ACID,2-Thiosalicylic acid,2-sulfanylbenzoic acid,6225,DTXSID4049032,OC(=O)c1ccccc1S,"InChI=1S/C7H6O2S/c8-7(9)5-3-1-2-4-6(5)10/h1-4,10H,(H,8,9)",NBOMNTLFRHMDEZ-UHFFFAOYSA-N,?,,"HANSCH,C ET AL. (1995)",2.39
101596,148-24-3,148-24-3,[H]OC1=C2N=C([H])C([H])=C([H])C2=C([H])C([H])=C1[H],8-QUINOLINOL,8-Hydroxyquinoline,quinolin-8-ol,6226,DTXSID5020730,Oc1cccc2ccc[n]c21,"InChI=1S/C9H7NO/c11-8-5-1-3-7-4-2-6-10-9(7)8/h1-6,11H",MCJGNVYPOGVAJF-UHFFFAOYSA-N,?,,"HANSCH,C ET AL. (1995)",2.02
101598,148-56-1,148-56-1,[H]C1=NS(=O)(=O)C2=C([H])C(S(=O)(=O)N([H])[H])=C(C(F)(F)F)C([H])=C2N1[H],FLUMETHAZIDE,Flumethiazide,"1,1-dioxo-6-(trifluoromethyl)-4H-benzo[e][1,2,4]thiadiazine-7-sulfonamide",6228,DTXSID60163862,NS(=O)(=O)c1cc2c(cc1C(F)(F)F)NC=NS2(=O)=O,"InChI=1S/C8H6F3N3O4S2/c9-8(10,11)4-1-5-7(2-6(4)19(12,15)16)20(17,18)14-3-13-5/h1-3H,(H,13,14)(H2,12,15,16)",RGUQWGXAYZNLMI-UHFFFAOYSA-N,?,,SANGSTER (1994),0.32
101599,148-79-8,148-79-8,[H]C1=NC(C2=NC3=C([H])C([H])=C([H])C([H])=C3N2[H])=C([H])S1,THIABENDAZOLE,Thiabendazole,"2-(1,3-thiazol-4-yl)-1H-benzimidazole",6229,DTXSID0021337,c1[n]c(c[s]1)-c1[nH]c2ccccc2[n]1,"InChI=1S/C10H7N3S/c1-2-4-8-7(3-1)12-10(13-8)9-5-14-6-11-9/h1-6H,(H,12,13)",WJCNZQLZVWNLKY-UHFFFAOYSA-N,?,,"NIELSEN,LS ET AL. (1992)",2.47
101600,148-82-3,148-82-3,[H]OC(=O)C([H])(N([H])[H])C([H])([H])C1=C([H])C([H])=C(N(C([H])([H])C([H])([H])Cl)C([H])([H])C([H])([H])Cl)C([H])=C1[H],4-(BIS(2-CHLOROETHYL)AMINO)-L-PHENYLALANINE,Melphalan,4-[bis(2-chloroethyl)amino]-L-phenylalanine,6230,DTXSID6020804,NC(Cc1ccc(cc1)N(CCCl)CCCl)C(O)=O,"InChI=1S/C13H18Cl2N2O2/c14-5-7-17(8-6-15)11-3-1-10(2-4-11)9-12(16)13(18)19/h1-4,12H,5-9,16H2,(H,18,19)",SGDBTWWWUNNDEQ-UHFFFAOYSA-N,?,,"SANGSTER,J (1994); pH 7.4",-0.52
101602,149-32-6,149-32-6,[H]OC([H])([H])C([H])(O[H])C([H])(O[H])C([H])([H])O[H],ERYTHRITOL,Erythritol,"(2R,3S)-butane-1,2,3,4-tetrol",6232,DTXSID6043919,OC(CO)C(O)CO,"InChI=1S/C4H10O4/c5-1-3(7)4(8)2-6/h3-8H,1-2H2",UNXHWFMMPAWVPI-UHFFFAOYSA-N,?,,"HANSCH,C ET AL. (1995)",-2.29