ChemID,source_casrn,CAS,SMILES,NAME,preferred_name,iupac,MPID,dsstox_substance_id,Canonical_QSARr,InChI_Code_QSARr,InChI Key_QSARr,Salt_Solvent,Salt_Solvent_ID,Kow Reference,LogP
101683,262-20-4,262-20-4,[H]C1=C([H])C([H])=C2SC3=C(OC2=C1[H])C([H])=C([H])C([H])=C3[H],PHENOTHIOXIN,Phenoxathiin,phenoxathiine,6309,DTXSID4024937,c1cccc2Oc3ccccc3Sc21,InChI=1S/C12H8OS/c1-3-7-11-9(5-1)13-10-6-2-4-8-12(10)14-11/h1-8H,GJSGGHOYGKMUPT-UHFFFAOYSA-N,?,,"HANSCH,C ET AL. (1995)",4.54
101684,268-77-9,268-77-9,[H]C1=C([H])C2=C([H])C3=C([H])C([H])=C([H])C([H])=C3C([H])=C2S1,"Naphtho[2,3,b]thiophene","Naphtho(2,3-b)thiophene",benzo[f][1]benzothiole,6310,DTXSID60181304,c1c2[s]ccc2cc2ccccc21,InChI=1S/C12H8S/c1-2-4-10-8-12-11(5-6-13-12)7-9(10)3-1/h1-8H,CYKIHIBNSFRKQP-UHFFFAOYSA-N,?,,"ANDERSSON,JT & SCHRADER,W (1999)",4.5
101686,271-44-3,271-44-3,[H]C1=NN([H])C2=C([H])C([H])=C([H])C([H])=C12,INDAZOLE,Indazole,1H-Indazole,6312,DTXSID4075374,c1[n][nH]c2ccccc21,"InChI=1S/C7H6N2/c1-2-4-7-6(3-1)5-8-9-7/h1-5H,(H,8,9)",BAXOFTOLAUCFNW-UHFFFAOYSA-N,?,,"HANSCH,C ET AL. (1995)",1.77
101688,271-89-6,271-89-6,[H]C1=C([H])C2=C([H])C([H])=C([H])C([H])=C2O1,BENZOFURAN,"2,3-Benzofuran",1-benzofuran,6313,DTXSID6020141,c1cccc2occc21,InChI=1S/C8H6O/c1-2-4-8-7(3-1)5-6-9-8/h1-6H,IANQTJSKSUMEQM-UHFFFAOYSA-N,?,,"HANSCH,C ET AL. (1995)",2.67
101689,271-95-4,271-95-4,[H]C1=NOC2=C([H])C([H])=C([H])C([H])=C12,"1,2-BENZISOXAZOLE",Benz(d)isoxazole,"1,2-benzoxazole",6314,DTXSID20181567,c1[n]oc2ccccc21,InChI=1S/C7H5NO/c1-2-4-7-6(3-1)5-8-9-7/h1-5H,KTZQTRPPVKQPFO-UHFFFAOYSA-N,?,,"HANSCH,C ET AL. (1995)",1.63
101691,272-97-9,272-97-9,[H]C1=NC([H])=C2C(=C1[H])N=C([H])N2[H],"3,5-DIAZAINDOLE","3,5-Diazaindole","3H-imidazo[5,4-c]pyridine",6316,DTXSID60181667,c1[n]ccc2[n]c[nH]c21,"InChI=1S/C6H5N3/c1-2-7-3-6-5(1)8-4-9-6/h1-4H,(H,8,9)",UBOOKRVGOBKDMM-UHFFFAOYSA-N,?,,"HANSCH,C ET AL. (1995)",0.18
101693,273-09-6,273-09-6,[H]C1=C([H])C([H])=C([H])C2=NON=C21,BENZOFURAZAN,Benzofurazan,"2,1,3-Benzoxadiazole",6317,DTXSID00181742,c1cccc2[n]o[n]c21,InChI=1S/C6H4N2O/c1-2-4-6-5(3-1)7-9-8-6/h1-4H,AWBOSXFRPFZLOP-UHFFFAOYSA-N,?,,"CALVINO,R ET AL. (1992)",1.69
101694,273-13-2,273-13-2,[H]C1=C([H])C([H])=C([H])C2=NSN=C21,"2,1,3-BENZOTHIADIAZOLE","2,1,3-Benzothiadiazole","2,1,3-Benzothiadiazole",6318,DTXSID3059767,c1cccc2[n][s][n]c21,InChI=1S/C6H4N2S/c1-2-4-6-5(3-1)7-9-8-6/h1-4H,PDQRQJVPEFGVRK-UHFFFAOYSA-N,?,,"CALVINO,R ET AL. (1992)",1.98
101697,273-53-0,273-53-0,[H]C1=NC2=C([H])C([H])=C([H])C([H])=C2O1,BENZOXAZOLE,Benzoxazole,"1,3-benzoxazole",6320,DTXSID8059768,c1[n]c2ccccc2o1,InChI=1S/C7H5NO/c1-2-4-7-6(3-1)8-5-9-7/h1-5H,BCMCBBGGLRIHSE-UHFFFAOYSA-N,?,,"HANSCH,C ET AL. (1995)",1.59
101698,274-09-9,274-09-9,[H]C1=C([H])C2=C(OC([H])([H])O2)C([H])=C1[H],"1,3-BENZODIOXOLE","1,3-Benzodioxolane","1,3-benzodioxole",6321,DTXSID9051951,C1Oc2ccccc2O1,"InChI=1S/C7H6O2/c1-2-4-7-6(3-1)8-5-9-7/h1-4H,5H2",FTNJQNQLEGKTGD-UHFFFAOYSA-N,?,,"HANSCH,C ET AL. (1995)",2.08
101699,274-40-8,274-40-8,[H]C1=C([H])C2=C([H])C([H])=C([H])N2C([H])=C1[H],INDOLIZINE,Indolizine,INDOLIZINE,6322,DTXSID50181818,c1cc[n]2ccccc21,InChI=1S/C8H7N/c1-2-6-9-7-3-5-8(9)4-1/h1-7H,HOBCFUWDNJPFHB-UHFFFAOYSA-N,?,,"HANSCH,C ET AL. (1995)",2.49
101701,274-87-3,274-87-3,[H]C1=C([H])C([H])=C([H])N2N=NN=C12,"TETRAZOLO[1,5-A]PYRIDINE",Pyridotetrazole,"Tetrazolo[1,5-a]pyridine",6324,DTXSID00181823,c1ccc[n]2[n][n][n]c21,InChI=1S/C5H4N4/c1-2-4-9-5(3-1)6-7-8-9/h1-4H,BPDSGGQFORKTMY-UHFFFAOYSA-N,?,,POMONA (1987),-0.09
101702,275-51-4,275-51-4,[H]C1=C([H])C([H])=C2C([H])=C([H])C([H])=C2C([H])=C1[H],AZULENE,Azulene,AZULENE,6325,DTXSID2059770,c1ccc2cccccc21,InChI=1S/C10H8/c1-2-5-9-7-4-8-10(9)6-3-1/h1-8H,CUFNKYGDVFVPHO-UHFFFAOYSA-N,?,,"HANSCH,C ET AL. (1995)",3.2
101703,278-06-8,278-06-8,[H]C1([H])C2([H])C3([H])C2([H])C2([H])C1([H])C32[H],Quadricyclane,Quadricyclane,,6326,DTXSID30182121,C1C2C3C4C1C4C32,"InChI=1S/C7H8/c1-2-4-5(2)7-3(1)6(4)7/h2-7H,1H2",DGZUEIPKRRSMGK-UHFFFAOYSA-N,?,,"LODGE,KB (1999)",2.9
101705,281-23-2,281-23-2,[H]C1([H])C2([H])C([H])([H])C3([H])C([H])([H])C1([H])C([H])([H])C([H])(C2([H])[H])C3([H])[H],TRICYCLO[3.3.1.1]DECANE,Adamantane,"tricyclo[3.3.1.1~3,7~]decane",6328,DTXSID5022017,C1C2CC3CC1CC(C2)C3,"InChI=1S/C10H16/c1-7-2-9-4-8(1)5-10(3-7)6-9/h7-10H,1-6H2",ORILYTVJVMAKLC-UHFFFAOYSA-N,?,,SANGSTER (1994),4.24
101708,287-92-3,287-92-3,[H]C1([H])C([H])([H])C([H])([H])C([H])([H])C1([H])[H],CYCLOPENTANE,Cyclopentane,cyclopentane,6329,DTXSID6024886,C1CCCC1,InChI=1S/C5H10/c1-2-4-5-3-1/h1-5H2,RGSFGYAAUTVSQA-UHFFFAOYSA-N,?,,"HANSCH,C ET AL. (1995)",3.0
101709,288-13-1,288-13-1,[H]C1=NN([H])C([H])=C1[H],PYRAZOLE,Pyrazole,1H-Pyrazole,6330,DTXSID2059774,c1cc[n][nH]1,"InChI=1S/C3H4N2/c1-2-4-5-3-1/h1-3H,(H,4,5)",WTKZEGDFNFYCGP-UHFFFAOYSA-N,?,,"HANSCH,C ET AL. (1995)",0.26
101711,288-32-4,288-32-4,[H]C1=NC([H])=C([H])N1[H],IMIDAZOLE,Imidazole,C3H4N2,6332,DTXSID2029616,c1[nH]cc[n]1,"InChI=1S/C3H4N2/c1-2-5-3-4-1/h1-3H,(H,4,5)",RAXXELZNTBOGNW-UHFFFAOYSA-N,?,,"HANSCH,C ET AL. (1995)",-0.08
101712,288-36-8,NOCAS_870495,[H]C1=NN([H])N=C1[H],"2H-1,2,3-TRIAZOLE",,,6333,DTXSID30870495,c1c[n][nH][n]1,"InChI=1S/C2H3N3/c1-2-4-5-3-1/h1-2H,(H,3,4,5)",QWENRTYMTSOGBR-UHFFFAOYSA-N,?,,"HANSCH,C ET AL. (1995)",-0.29
101713,288-37-9,288-37-9,[H]C1=NON=C1[H],FURAZAN,"1,2,5-Oxadiazole","1,2,5-Oxadiazole",6334,DTXSID50182981,c1c[n]o[n]1,InChI=1S/C2H2N2O/c1-2-4-5-3-1/h1-2H,JKFAIQOWCVVSKC-UHFFFAOYSA-N,?,,"CALVINO,R ET AL. (1992)",0.16
101715,288-47-1,288-47-1,[H]C1=NC([H])=C([H])S1,THIAZOLE,Thiazole,"1,3-thiazole",6336,DTXSID2059776,c1[n]cc[s]1,InChI=1S/C3H3NS/c1-2-5-3-4-1/h1-3H,FZWLAAWBMGSTSO-UHFFFAOYSA-N,?,,"HANSCH,C ET AL. (1995)",0.44
101716,288-88-0,288-88-0,[H]C1=NN([H])C([H])=N1,"1H-1,2,4-TRIAZOLE","1H-1,2,4-Triazole","1H-1,2,4-triazole",6337,DTXSID6027131,c1[nH][n]c[n]1,"InChI=1S/C2H3N3/c1-3-2-5-4-1/h1-2H,(H,3,4,5)",NSPMIYGKQJPBQR-UHFFFAOYSA-N,?,,"HANSCH,C ET AL. (1995)",-0.58
101717,288-94-8,288-94-8,[H]C1=NN=NN1[H],1H-TETRAZOLE,1H-Tetrazole,,6338,DTXSID5075280,c1[nH][n][n][n]1,"InChI=1S/CH2N4/c1-2-4-5-3-1/h1H,(H,2,3,4,5)",KJUGUADJHNHALS-UHFFFAOYSA-N,?,,"HANSCH,C ET AL. (1995)",-0.6
101719,289-95-2,289-95-2,[H]C1=NC([H])=C([H])C([H])=N1,PYRIMIDINE,Pyrimidine,pyrimidine,6340,DTXSID1051228,c1[n]ccc[n]1,InChI=1S/C4H4N2/c1-2-5-4-6-3-1/h1-4H,CZPWVGJYEJSRLH-UHFFFAOYSA-N,?,,"HANSCH,C ET AL. (1995)",-0.4
101720,290-37-9,290-37-9,[H]C1=NC([H])=C([H])N=C1[H],PYRAZINE,Pyrazine,pyrazine,6341,DTXSID8049410,c1c[n]cc[n]1,InChI=1S/C4H4N2/c1-2-6-4-3-5-1/h1-4H,KYQCOXFCLRTKLS-UHFFFAOYSA-N,?,,"HANSCH,C ET AL. (1995)",-0.26
101721,290-87-9,290-87-9,[H]C1=NC([H])=NC([H])=N1,SYM-TRIAZINE,"1,3,5-Triazine","1,3,5-triazine",6342,DTXSID7052785,c1[n]c[n]c[n]1,InChI=1S/C3H3N3/c1-4-2-6-3-5-1/h1-3H,JIHQDMXYYFUGFV-UHFFFAOYSA-N,?,,"WEI,L ET AL. (1999)",0.12
101723,292-64-8,292-64-8,[H]C1([H])C([H])([H])C([H])([H])C([H])([H])C([H])([H])C([H])([H])C([H])([H])C1([H])[H],CYCLOOCTANE,Cyclooctane,,6344,DTXSID9075377,C1CCCCCCC1,InChI=1S/C8H16/c1-2-4-6-8-7-5-3-1/h1-8H2,WJTCGQSWYFHTAC-UHFFFAOYSA-N,?,,SANGSTER (1993),4.45
101724,294-93-9,294-93-9,[H]C1([H])OC([H])([H])C([H])([H])OC([H])([H])C([H])([H])OC([H])([H])C([H])([H])OC1([H])[H],"1,4,7,10-TETRAOXACYCLODODECANE","1,4,7,10-Tetraoxacyclododecane","1,4,7,10-TETRAOXACYCLODODECANE",6345,DTXSID6059780,C1COCCOCCOCCO1,InChI=1S/C8H16O4/c1-2-10-5-6-12-8-7-11-4-3-9-1/h1-8H2,XQQZRZQVBFHBHL-UHFFFAOYSA-N,?,,"HANSCH,C ET AL. (1995)",-0.04
101725,298-00-0,298-00-0,[H]C1=C([H])C([N+](=O)[O-])=C([H])C([H])=C1OP(=S)(OC([H])([H])[H])OC([H])([H])[H],PARATHION METHYL,Methyl parathion,"O,O-dimethyl O-(4-nitrophenyl) phosphorothioate",6346,DTXSID1020855,COP(=S)(Oc1ccc(cc1)[N+]([O-])=O)OC,"InChI=1S/C8H10NO5PS/c1-12-15(16,13-2)14-8-5-3-7(4-6-8)9(10)11/h3-6H,1-2H3",RLBIQVVOMOPOHC-UHFFFAOYSA-N,?,,"HANSCH,C ET AL. (1995)",2.86
101727,298-02-2,298-02-2,[H]C([H])(SC([H])([H])C([H])([H])[H])SP(=S)(OC([H])([H])C([H])([H])[H])OC([H])([H])C([H])([H])[H],PHORATE,Phorate,"O,O-diethyl S-[(ethylsulfanyl)methyl] phosphorodithioate",6348,DTXSID4032459,CCSCSP(=S)(OCC)OCC,"InChI=1S/C7H17O2PS3/c1-4-8-10(11,9-5-2)13-7-12-6-3/h4-7H2,1-3H3",BULVZWIRKLYCBC-UHFFFAOYSA-N,?,,"HANSCH,C ET AL. (1995)",3.56
101728,298-04-4,298-04-4,[H]C([H])([H])C([H])([H])OP(=S)(OC([H])([H])C([H])([H])[H])SC([H])([H])C([H])([H])SC([H])([H])C([H])([H])[H],DISULFOTON,Disulfoton,"O,O-diethyl S-[2-(ethylsulfanyl)ethyl] phosphorodithioate",6349,DTXSID0022018,CCSCCSP(=S)(OCC)OCC,"InChI=1S/C8H19O2PS3/c1-4-9-11(12,10-5-2)14-8-7-13-6-3/h4-8H2,1-3H3",DOFZAZXDOSGAJZ-UHFFFAOYSA-N,?,,"HANSCH,C ET AL. (1995)",4.02
101729,298-46-4,298-46-4,[H]C1=C([H])C([H])=C2C(=C1[H])C([H])=C([H])C1=C(C([H])=C([H])C([H])=C1[H])N2C(=O)N([H])[H],CARBAMAZEPINE,Carbamazepine,"5H-dibenzo[b,f]azepine-5-carboxamide",6350,DTXSID4022731,NC(=O)N1c2ccccc2C=Cc2ccccc12,"InChI=1S/C15H12N2O/c16-15(18)17-13-7-3-1-5-11(13)9-10-12-6-2-4-8-14(12)17/h1-10H,(H2,16,18)",FFGPTBGBLSHEPO-UHFFFAOYSA-N,?,,"DAL POZZO,A ET AL. (1989)",2.45
101732,299-84-3,299-84-3,[H]C1=C(Cl)C(Cl)=C([H])C(OP(=S)(OC([H])([H])[H])OC([H])([H])[H])=C1Cl,RONNEL,Fenchlorphos,"O,O-dimethyl O-(2,4,5-trichlorophenyl) phosphorothioate",6352,DTXSID2034885,COP(=S)(Oc1cc(Cl)c(Cl)cc1Cl)OC,"InChI=1S/C8H8Cl3O3PS/c1-12-15(16,13-2)14-8-4-6(10)5(9)3-7(8)11/h3-4H,1-2H3",JHJOOSLFWRRSGU-UHFFFAOYSA-N,?,,SANGSTER (1994),4.88
101733,299-85-4,299-85-4,[H]C1=C([H])C(OP(=S)(OC([H])([H])[H])N([H])C([H])(C([H])([H])[H])C([H])([H])[H])=C(Cl)C([H])=C1Cl,DMPA,Zytron,"O-(2,4-dichlorophenyl) O-methyl isopropylphosphoramidothioate",6353,DTXSID1058052,COP(=S)(NC(C)C)Oc1ccc(Cl)cc1Cl,"InChI=1S/C10H14Cl2NO2PS/c1-7(2)13-16(17,14-3)15-10-5-4-8(11)6-9(10)12/h4-7H,1-3H3,(H,13,17)",PJFGPJQBWSEWKX-UHFFFAOYSA-N,?,,"HANSCH,C ET AL. (1995)",4.3
101734,299-86-5,299-86-5,[H]C1=C(Cl)C(OP(=O)(OC([H])([H])[H])N([H])C([H])([H])[H])=C([H])C([H])=C1C(C([H])([H])[H])(C([H])([H])[H])C([H])([H])[H],CRUFOMATE,Crufomate,4-tert-butyl-2-chlorophenyl methyl methylphosphoramidate,6354,DTXSID1037515,COP(=O)(NC)Oc1ccc(cc1Cl)C(C)(C)C,"InChI=1S/C12H19ClNO3P/c1-12(2,3)9-6-7-11(10(13)8-9)17-18(15,14-4)16-5/h6-8H,1-5H3,(H,14,15)",BOFHKBLZOYVHSI-UHFFFAOYSA-N,?,,"HANSCH,C ET AL. (1995)",3.42
101736,300-57-2,NOCAS_861855,[H]C([H])=C([H])C([H])([H])C1=C([H])C([H])=C([H])C([H])=C1[H],ALLYLBENZENE,,,6356,DTXSID00861855,C=CCc1ccccc1,"InChI=1S/C9H10/c1-2-6-9-7-4-3-5-8-9/h2-5,7-8H,1,6H2",HJWLCRVIBGQPNF-UHFFFAOYSA-N,?,,"HANSCH,C ET AL. (1995)",3.23
101738,300-76-5,300-76-5,[H]C([H])([H])OP(=O)(OC([H])([H])[H])OC([H])(Br)C(Cl)(Cl)Br,NALED,Naled,"1,2-dibromo-2,2-dichloroethyl dimethyl phosphate",6358,DTXSID1024209,COP(=O)(OC(Br)C(Cl)(Cl)Br)OC,"InChI=1S/C4H7Br2Cl2O4P/c1-10-13(9,11-2)12-3(5)4(6,7)8/h3H,1-2H3",BUYMVQAILCEWRR-UHFFFAOYSA-N,?,,"HANSCH,C ET AL. (1995)",1.38
101739,301-00-8,301-00-8,[H]/C(=C(/[H])C([H])([H])/C([H])=C(\[H])C([H])([H])C([H])([H])C([H])([H])C([H])([H])C([H])([H])C([H])([H])C([H])([H])C(=O)OC([H])([H])[H])C([H])([H])/C([H])=C(\[H])C([H])([H])C([H])([H])[H],Methyl linolenate,Methyl linolenate,"methyl (9Z,12Z,15Z)-octadeca-9,12,15-trienoate",6359,DTXSID5041560,CCC=CCC=CCC=CCCCCCCCC(=O)OC,"InChI=1S/C19H32O2/c1-3-4-5-6-7-8-9-10-11-12-13-14-15-16-17-18-19(20)21-2/h4-5,7-8,10-11H,3,6,9,12-18H2,1-2H3/b5-4+,8-7+,11-10+",DVWSXZIHSUZZKJ-JSIPCRQOSA-N,?,,"KROP,HB ET AL. (1997)",6.29
101742,302-17-0,302-17-0,[H]OC([H])(O[H])C(Cl)(Cl)Cl,CHORAL HYDRATE,Chloral hydrate,"2,2,2-trichloroethane-1,1-diol",6361,DTXSID7020261,OC(O)C(Cl)(Cl)Cl,"InChI=1S/C2H3Cl3O2/c3-2(4,5)1(6)7/h1,6-7H",RNFNDJAIBTYOQL-UHFFFAOYSA-N,?,,"HANSCH,C ET AL. (1995)",0.99
101743,302-41-0,302-41-0,[H]C1=C([H])C([H])=C(C(C#N)(C2=C([H])C([H])=C([H])C([H])=C2[H])C([H])([H])C([H])([H])N2C([H])([H])C([H])([H])C(C(=O)N([H])[H])(N3C([H])([H])C([H])([H])C([H])([H])C([H])([H])C3([H])[H])C([H])([H])C2([H])[H])C([H])=C1[H],PIRITRAMIDE,Piritramide [INN:BAN:DCF],"1-[3-cyano-3,3-di(phenyl)propyl]-4-piperidin-1-ylpiperidine-4-carboxamide",6362,DTXSID00184293,NC(=O)C1(CCN(CCC(C#N)(c2ccccc2)c2ccccc2)CC1)N1CCCCC1,"InChI=1S/C27H34N4O/c28-22-26(23-10-4-1-5-11-23,24-12-6-2-7-13-24)14-19-30-20-15-27(16-21-30,25(29)32)31-17-8-3-9-18-31/h1-2,4-7,10-13H,3,8-9,14-21H2,(H2,29,32)",IHEHEFLXQFOQJO-UHFFFAOYSA-N,?,,SANGSTER (1993),3.91
101746,302-79-4,302-79-4,[H]OC(=O)/C([H])=C(C(/[H])=C([H])/C([H])=C(C(/[H])=C(\[H])C1=C(C([H])([H])[H])C([H])([H])C([H])([H])C([H])([H])C1(C([H])([H])[H])C([H])([H])[H])\C([H])([H])[H])\C([H])([H])[H],RETINOIC ACID,all-trans-Retinoic acid,C20H28O2,6364,DTXSID7021239,CC1CCCC(C)(C)C=1C=CC(C)=CC=CC(C)=CC(O)=O,"InChI=1S/C20H28O2/c1-15(8-6-9-16(2)14-19(21)22)11-12-18-17(3)10-7-13-20(18,4)5/h6,8-9,11-12,14H,7,10,13H2,1-5H3,(H,21,22)/b9-6+,12-11+,15-8+,16-14+",SHGAZHPCJJPHSC-YCNIQYBTSA-N,?,,"HANSCH,C ET AL. (1995)",6.3
101748,303-34-4,303-34-4,[H]OC(C(=O)OC([H])([H])C1=C([H])C([H])([H])N2C([H])([H])C([H])([H])C([H])(OC(=O)/C(=C(\[H])C([H])([H])[H])C([H])([H])[H])C12[H])(C([H])(OC([H])([H])[H])C([H])([H])[H])C(O[H])(C([H])([H])[H])C([H])([H])[H],LASIOCARPINE,Lasiocarpine,"(1S,7aR)-7-[({(2S)-2,3-dihydroxy-2-[(1S)-1-methoxyethyl]-3-methylbutanoyl}oxy)methyl]-2,3,5,7a-tetrahydro-1H-pyrrolizin-1-yl (2Z)-2-methylbut-2-enoate",6366,DTXSID1020772,CC(C)(O)C(O)(C(C)OC)C(=O)OCC1=CCN2CCC(OC(=O)C(C)=CC)C21,"InChI=1S/C21H33NO7/c1-7-13(2)18(23)29-16-9-11-22-10-8-15(17(16)22)12-28-19(24)21(26,14(3)27-6)20(4,5)25/h7-8,14,16-17,25-26H,9-12H2,1-6H3/b13-7+",QHOZSLCIKHUPSU-NTUHNPAUSA-N,?,,"ELLINGTON,JT & STANCIL,FE (1988)",1.28
101749,303-38-8,303-38-8,[H]OC(=O)C1=C([H])C([H])=C([H])C(O[H])=C1O[H],"2,3-DIHYDROXYBENZOIC ACID","2,3-Dihydroxybenzoic acid",C7H6O4,6367,DTXSID70858712,Oc1cccc(C(O)=O)c1O,"InChI=1S/C7H6O4/c8-5-3-1-2-4(6(5)9)7(10)11/h1-3,8-9H,(H,10,11)",GLDQAMYCGOIJDV-UHFFFAOYSA-N,?,,"HANSCH,C ET AL. (1995)",1.2
101752,305-03-3,305-03-3,[H]OC(=O)C([H])([H])C([H])([H])C([H])([H])C1=C([H])C([H])=C(N(C([H])([H])C([H])([H])Cl)C([H])([H])C([H])([H])Cl)C([H])=C1[H],Chlorambucil,Chlorambucil,4-{4-[bis(2-chloroethyl)amino]phenyl}butanoic acid,6370,DTXSID7020263,OC(=O)CCCc1ccc(cc1)N(CCCl)CCCl,"InChI=1S/C14H19Cl2NO2/c15-8-10-17(11-9-16)13-6-4-12(5-7-13)2-1-3-14(18)19/h4-7H,1-3,8-11H2,(H,18,19)",JCKYGMPEJWAADB-UHFFFAOYSA-N,?,,"HANSCH,C ET AL. (1995); pH 7.4",1.7
101753,305-62-4,NOCAS_862749,[H]OC(=O)C([H])(N([H])[H])C([H])([H])C([H])([H])N([H])[H],"2,4-DIAMINOBUTYRIC ACID",,,6371,DTXSID80862749,NCCC(N)C(O)=O,"InChI=1S/C4H10N2O2/c5-2-1-3(6)4(7)8/h3H,1-2,5-6H2,(H,7,8)",OGNSCSPNOLGXSM-UHFFFAOYSA-N,?,,"HANSCH,C ET AL. (1995)",-4.64
101754,306-08-1,306-08-1,[H]OC(=O)C([H])([H])C1=C([H])C(OC([H])([H])[H])=C(O[H])C([H])=C1[H],"BENZENEACETIC ACID, 4-HYDROXY-3-METHOXY-",Homovanillic acid,2-(4-hydroxy-3-methoxyphenyl)acetic acid,6372,DTXSID5059791,COc1cc(CC(O)=O)ccc1O,"InChI=1S/C9H10O4/c1-13-8-4-6(5-9(11)12)2-3-7(8)10/h2-4,10H,5H2,1H3,(H,11,12)",QRMZSPFSDQBLIX-UHFFFAOYSA-N,?,,"LAHANN,TR ET AL. (1989)",0.33
101756,306-44-5,306-44-5,[H]C([H])([H])C(=O)C([H])([H])N=O,HYDROXYIMINOACETONE,"Propanal, 2-oxo-, 1-oxime",,6374,DTXSID0073162,CC(=O)CN=O,"InChI=1S/C3H5NO2/c1-3(5)2-4-6/h2H2,1H3",XIOSHRWCAJCXKL-UHFFFAOYSA-N,?,,"HANSCH,C ET AL. (1995)",0.34
101757,309-00-2,309-00-2,[H]C1=C([H])C2([H])C([H])([H])C1([H])C1([H])C3(Cl)C(Cl)=C(Cl)C(Cl)(C3(Cl)Cl)C21[H],ALDRIN,Aldrin,C12H8Cl6,6375,DTXSID8020040,ClC1(Cl)C2(Cl)C3C4CC(C=C4)C3C1(Cl)C(Cl)=C2Cl,"InChI=1S/C12H8Cl6/c13-8-9(14)11(16)7-5-2-1-4(3-5)6(7)10(8,15)12(11,17)18/h1-2,4-7H,3H2",QBYJBZPUGVGKQQ-UHFFFAOYSA-N,?,,"DEBRUIJN,J ET AL. (1989)",6.5
101758,309-11-5,309-11-5,[H]C1=C([H])C([H])=C(C(F)(F)C(F)(F)F)C([H])=C1[H],PENTAFLUOROETHYLBENZENE,(PENTAFLUOROETHYL)BENZENE,C8H5F5,6376,DTXSID10461582,FC(F)(F)C(F)(F)c1ccccc1,"InChI=1S/C8H5F5/c9-7(10,8(11,12)13)6-4-2-1-3-5-6/h1-5H",XYKZEZPREAUXDQ-UHFFFAOYSA-N,?,,BIOBYTE (1995),3.36
101760,312-35-6,312-35-6,[H]C1=C([H])C(S(=O)(=O)C2=C([H])C([H])=C(N([H])[H])C([H])=C2[H])=C([H])C([H])=C1F,"BENZENAMINE, 4-[(4-FLUOROPHENYL)SULFONYL]-",,,6378,DTXSID90876695,Nc1ccc(cc1)S(=O)(=O)c1ccc(F)cc1,"InChI=1S/C12H10FNO2S/c13-9-1-5-11(6-2-9)17(15,16)12-7-3-10(14)4-8-12/h1-8H,14H2",YKLGSFACDTUTPG-UHFFFAOYSA-N,?,,"HANSCH,C ET AL. (1995)",2.17
101761,312-73-2,312-73-2,[H]C1=C([H])C([H])=C2C(=C1[H])N=C(C(F)(F)F)N2[H],2-CF3 BENZIMIDAZOLE,"1H-Benzimidazole, 2-(trifluoromethyl)- (9CI)",2-(Trifluoromethyl)-1H-benzimidazole,6379,DTXSID00185129,FC(F)(F)c1[nH]c2ccccc2[n]1,"InChI=1S/C8H5F3N2/c9-8(10,11)7-12-5-3-1-2-4-6(5)13-7/h1-4H,(H,12,13)",MXFMPTXDHSDMTI-UHFFFAOYSA-N,?,,"HANSCH,C ET AL. (1995)",2.67
101762,312-90-3,NOCAS_861644,[H]OC1([H])C([H])([H])C2(C([H])([H])[H])C([H])(C(=O)C([H])([H])[H])C([H])([H])C([H])([H])C2([H])C2([H])C([H])([H])C([H])([H])C3=C([H])C(=O)C([H])([H])C([H])([H])C3(C([H])([H])[H])C12[H],11-A-HYDROXYPROGESTERONE,,,6380,DTXSID10861644,CC(=O)C1CCC2C3CCC4=CC(=O)CCC4(C)C3C(O)CC21C,"InChI=1S/C21H30O3/c1-12(22)16-6-7-17-15-5-4-13-10-14(23)8-9-20(13,2)19(15)18(24)11-21(16,17)3/h10,15-19,24H,4-9,11H2,1-3H3",BFZHCUBIASXHPK-UHFFFAOYSA-N,?,,"HANSCH,C ET AL. (1995)",2.36
101764,315-18-4,315-18-4,[H]C1=C(OC(=O)N([H])C([H])([H])[H])C([H])=C(C([H])([H])[H])C(N(C([H])([H])[H])C([H])([H])[H])=C1C([H])([H])[H],MEXACARBATE,Mexacarbate,"4-(dimethylamino)-3,5-dimethylphenyl methylcarbamate",6382,DTXSID7020893,CN(C)c1c(C)cc(cc1C)OC(=O)NC,"InChI=1S/C12H18N2O2/c1-8-6-10(16-12(15)13-3)7-9(2)11(8)14(4)5/h6-7H,1-5H3,(H,13,15)",YNEVBPNZHBAYOA-UHFFFAOYSA-N,?,,SANGSTER (1994),2.56
101765,315-30-0,315-30-0,[H]OC1=C2C([H])=NN([H])C2=NC([H])=N1,ALLOPURINOL,Allopurinol,"1H-pyrazolo[3,4-d]pyrimidin-4-ol",6383,DTXSID4022573,Oc1[n]c[n]c2[nH][n]cc21,"InChI=1S/C5H4N4O/c10-5-3-1-8-9-4(3)6-2-7-5/h1-2H,(H2,6,7,8,9,10)",OFCNXPDARWKPPY-UHFFFAOYSA-N,?,,"BUNDGAARD,H & FALCH,E (1985)",-0.55
101766,317-57-7,317-57-7,[H]C1=C([H])C([H])=C2C(=N1)C(C(F)(F)F)=C([H])C([H])=C2[H],8-CF3 QUINOLINE,PUBCHEM_12647568,C10H6F3N,6384,DTXSID20505603,FC(F)(F)c1cccc2ccc[n]c21,"InChI=1S/C10H6F3N/c11-10(12,13)8-5-1-3-7-4-2-6-14-9(7)8/h1-6H",AJXUSUNIYLSPER-UHFFFAOYSA-N,?,,"HANSCH,C ET AL. (1995)",2.5
101772,321-14-2,321-14-2,[H]OC(=O)C1=C([H])C(Cl)=C([H])C([H])=C1O[H],5-CHLOROSALICYLIC ACID,"Benzoic acid, 5-chloro-2-hydroxy-",5-Chloro-2-hydroxybenzoic acid,6389,DTXSID7059806,Oc1ccc(Cl)cc1C(O)=O,"InChI=1S/C7H5ClO3/c8-4-1-2-6(9)5(3-4)7(10)11/h1-3,9H,(H,10,11)",NKBASRXWGAGQDP-UHFFFAOYSA-N,?,,"HANSCH,C ET AL. (1995)",3.09
101773,321-28-8,321-28-8,[H]C1=C([H])C([H])=C(OC([H])([H])[H])C(F)=C1[H],2-FLUOROANISOLE,2-Fluoroanisole,1-Fluoro-2-methoxybenzene,6390,DTXSID50185891,COc1ccccc1F,"InChI=1S/C7H7FO/c1-9-7-5-3-2-4-6(7)8/h2-5H,1H3",JIXDOBAQOWOUPA-UHFFFAOYSA-N,?,,"NAKAGAWA,Y ET AL. (1992)",2.14
101774,321-64-2,321-64-2,[H]C1=C([H])C([H])=C([H])C2=C(N([H])[H])C3=C(N=C12)C([H])([H])C([H])([H])C([H])([H])C3([H])[H],TACRINE,Tacrine,"1,2,3,4-tetrahydroacridin-9-amine",6391,DTXSID1037272,Nc1c2ccccc2[n]c2CCCCc21,"InChI=1S/C13H14N2/c14-13-9-5-1-3-7-11(9)15-12-8-4-2-6-10(12)13/h1,3,5,7H,2,4,6,8H2,(H2,14,15)",YLJREFDVOIBQDA-UHFFFAOYSA-N,?,,"HANSCH,C ET AL. (1995)",2.71
101776,322-97-4,322-97-4,[H]C1=C2C(=O)C([H])=C([H])N([H])C2=C([H])C(C(F)(F)F)=C1[H],4-HYDROXY-7-TRIFLUOROMEQUINOLINE,7-(Trifluorophenyl)quinolin-4-ol,7-(trifluoromethyl)-1H-quinolin-4-one,6393,DTXSID10185973,O=C1C=CNc2cc(ccc21)C(F)(F)F,"InChI=1S/C10H6F3NO/c11-10(12,13)6-1-2-7-8(5-6)14-4-3-9(7)15/h1-5H,(H,14,15)",OWPLFJSQLPTCHS-UHFFFAOYSA-N,?,,"HANSCH,C ET AL. (1995)",2.05
101777,325-14-4,325-14-4,[H]C1=NC2=C([H])C(C(F)(F)F)=C([H])C([H])=C2C([H])=C1[H],7-CF3 QUINOLINE,7-(Trifluoromethyl)quinoline,C10H6F3N,6394,DTXSID90332685,FC(F)(F)c1cc2[n]cccc2cc1,"InChI=1S/C10H6F3N/c11-10(12,13)8-4-3-7-2-1-5-14-9(7)6-8/h1-6H",CMMSEFHVUYEEDY-UHFFFAOYSA-N,?,,"HANSCH,C ET AL. (1995)",3.02
101778,326-91-0,326-91-0,[H]C1=C([H])C([H])=C(C(=O)C([H])([H])C(=O)C(F)(F)F)S1,THENOYLTRIFLUOROMETHYLACETONE,"1,3-Butanedione, 4,4,4-trifluoro-1-(2-thienyl)-","4,4,4-trifluoro-1-thiophen-2-ylbutane-1,3-dione",6395,DTXSID1059812,O=C(CC(=O)c1ccc[s]1)C(F)(F)F,"InChI=1S/C8H5F3O2S/c9-8(10,11)7(13)4-5(12)6-2-1-3-14-6/h1-3H,4H2",TXBBUSUXYMIVOS-UHFFFAOYSA-N,?,,"HANSCH,C ET AL. (1995)",1.46