ChemID,source_casrn,CAS,SMILES,NAME,preferred_name,iupac,MPID,dsstox_substance_id,Canonical_QSARr,InChI_Code_QSARr,InChI Key_QSARr,Salt_Solvent,Salt_Solvent_ID,Kow Reference,LogP
102686,626-67-5,626-67-5,[H]C([H])([H])N1C([H])([H])C([H])([H])C([H])([H])C([H])([H])C1([H])[H],N-METHYLPIPERIDINE,"Piperidine, 1-methyl-",1-Methylpiperidine,7274,DTXSID8060822,CN1CCCCC1,"InChI=1S/C6H13N/c1-7-5-3-2-4-6-7/h2-6H2,1H3",PAMIQIKDUOTOBW-UHFFFAOYSA-N,?,,"HANSCH,C ET AL. (1995)",1.3
102687,626-86-8,NOCAS_862319,[H]OC(=O)C([H])([H])C([H])([H])C([H])([H])C([H])([H])C(=O)OC([H])([H])C([H])([H])[H],"HEXANEDIOIC ACID, MONOETHYL ESTER",,,7275,DTXSID70862319,CCOC(=O)CCCCC(O)=O,"InChI=1S/C8H14O4/c1-2-12-8(11)6-4-3-5-7(9)10/h2-6H2,1H3,(H,9,10)",UZNLHJCCGYKCIL-UHFFFAOYSA-N,?,,CHEMICALS INSPECTION AND TESTING INSTITU (1992),0.91
102689,627-05-4,627-05-4,[H]C([H])([H])C([H])([H])C([H])([H])C([H])([H])[N+](=O)[O-],1-NITROBUTANE,1-Nitrobutane,1-nitrobutane,7277,DTXSID8020967,CCCC[N+]([O-])=O,"InChI=1S/C4H9NO2/c1-2-3-4-5(6)7/h2-4H2,1H3",NALZTFARIYUCBY-UHFFFAOYSA-N,?,,"HANSCH,C ET AL. (1995)",1.47
102690,627-12-3,627-12-3,[H]N([H])C(=O)OC([H])([H])C([H])([H])C([H])([H])[H],O-PROPYLCARBAMATE,Propyl carbamate,Propyl carbamate,7278,DTXSID7060833,CCCOC(N)=O,"InChI=1S/C4H9NO2/c1-2-3-7-4(5)6/h2-3H2,1H3,(H2,5,6)",YNTOKMNHRPSGFU-UHFFFAOYSA-N,?,,"HANSCH,C ET AL. (1995)",0.36
102691,627-19-0,627-19-0,[H]C#CC([H])([H])C([H])([H])C([H])([H])[H],1-PENTYNE,1-Pentyne,pent-1-yne,7279,DTXSID7060835,CCCC#C,"InChI=1S/C5H8/c1-3-5-4-2/h1H,4-5H2,2H3",IBXNCJKFFQIKKY-UHFFFAOYSA-N,?,,"HANSCH,C ET AL. (1995)",1.98
102693,627-31-6,627-31-6,[H]C([H])(I)C([H])([H])C([H])([H])I,"PROPANE, 1,3-DIIODO-","Propane, 1,3-diiodo-","1,3-Diiodopropane",7281,DTXSID7060837,ICCCI,InChI=1S/C3H6I2/c4-2-1-3-5/h1-3H2,AAAXMNYUNVCMCJ-UHFFFAOYSA-N,?,,"HANSCH,C ET AL. (1995)",3.02
102694,627-35-0,627-35-0,[H]N(C([H])([H])[H])C([H])([H])C([H])([H])C([H])([H])[H],N-METHYLPROPYLAMINE,N-Methyl-N-propylamine,N-methylpropan-1-amine,7282,DTXSID50211760,CCCNC,"InChI=1S/C4H11N/c1-3-4-5-2/h5H,3-4H2,1-2H3",GVWISOJSERXQBM-UHFFFAOYSA-N,?,,"HANSCH,C ET AL. (1995)",0.84
102695,627-93-0,627-93-0,[H]C([H])([H])OC(=O)C([H])([H])C([H])([H])C([H])([H])C([H])([H])C(=O)OC([H])([H])[H],"HEXANEDIOIC ACID, DIMETHYL ESTER",Dimethyl adipate,dimethyl hexanedioate,7283,DTXSID8025096,COC(=O)CCCCC(=O)OC,"InChI=1S/C8H14O4/c1-11-7(9)5-3-4-6-8(10)12-2/h3-6H2,1-2H3",UDSFAEKRVUSQDD-UHFFFAOYSA-N,?,,"HANSCH,C ET AL. (1995)",1.03
102697,628-20-6,628-20-6,[H]C([H])(Cl)C([H])([H])C([H])([H])C#N,"BUTANENITRILE, 4-CHLORO-",4-Chlorobutyronitrile,4-Chlorobutanenitrile,7285,DTXSID0060850,N#CCCCCl,InChI=1S/C4H6ClN/c5-3-1-2-4-6/h1-3H2,ZFCFBWSVQWGOJJ-UHFFFAOYSA-N,?,,"TANII,H & HASHIMOTO,K (1984)",0.56
102698,628-28-4,628-28-4,[H]C([H])([H])OC([H])([H])C([H])([H])C([H])([H])C([H])([H])[H],METHYL N-BUTYL ETHER,"Butane, 1-methoxy-",1-Methoxybutane,7286,DTXSID5074559,CCCCOC,"InChI=1S/C5H12O/c1-3-4-5-6-2/h3-5H2,1-2H3",CXBDYQVECUFKRK-UHFFFAOYSA-N,?,,"HANSCH,C ET AL. (1995)",1.66
102699,628-34-2,628-34-2,[H]C([H])([H])C([H])([H])OC([H])([H])C([H])([H])Cl,2-CHLOROETHYLETHER,"Ethane, 1-chloro-2-ethoxy- (9CI)",1-CHLORO-2-ETHOXYETHANE,7287,DTXSID10211882,CCOCCCl,"InChI=1S/C4H9ClO/c1-2-6-4-3-5/h2-4H2,1H3",GPTVQTPMFOLLOA-UHFFFAOYSA-N,?,,"HANSCH,C ET AL. (1995)",0.98
102701,628-55-7,628-55-7,[H]C([H])([H])C([H])(C([H])([H])[H])C([H])([H])OC([H])([H])C([H])(C([H])([H])[H])C([H])([H])[H],DI-ISOBUTYL ETHER,"Propane, 1,1'-oxybis[2-methyl-",2-methyl-1-(2-methylpropoxy)propane,7289,DTXSID0060856,CC(C)COCC(C)C,"InChI=1S/C8H18O/c1-7(2)5-9-6-8(3)4/h7-8H,5-6H2,1-4H3",SZNYYWIUQFZLLT-UHFFFAOYSA-N,?,,"FUNASAKI,N ET AL. (1985)",2.78
102702,628-63-7,628-63-7,[H]C([H])([H])C(=O)OC([H])([H])C([H])([H])C([H])([H])C([H])([H])C([H])([H])[H],N-AMYL ACETATE,Pentyl acetate,pentyl acetate,7290,DTXSID1027263,CCCCCOC(C)=O,"InChI=1S/C7H14O2/c1-3-4-5-6-9-7(2)8/h3-6H2,1-2H3",PGMYKACGEOXYJE-UHFFFAOYSA-N,?,,"ABRAHAM,MH ET AL. (1994)",2.3
102703,628-73-9,628-73-9,[H]C([H])([H])C([H])([H])C([H])([H])C([H])([H])C([H])([H])C#N,HEXANENITRILE,Hexanenitrile,Hexanenitrile,7291,DTXSID0060858,CCCCCC#N,"InChI=1S/C6H11N/c1-2-3-4-5-6-7/h2-5H2,1H3",AILKHAQXUAOOFU-UHFFFAOYSA-N,?,,"TANII,H & HASHIMOTO,K (1984)",1.66
102705,628-83-1,628-83-1,[H]C([H])([H])C([H])([H])C([H])([H])C([H])([H])SC#N,"THIOCYANIC ACID, BUTYL ESTER","Thiocyanic acid, butyl ester",1-thiocyanatobutane,7293,DTXSID4060860,CCCCSC#N,"InChI=1S/C5H9NS/c1-2-3-4-7-5-6/h2-4H2,1H3",HXNXAEYAXNPLHJ-UHFFFAOYSA-N,?,,"HANSCH,C ET AL. (1995)",2.03
102706,628-96-6,628-96-6,[H]C([H])(O[N+](=O)[O-])C([H])([H])O[N+](=O)[O-],ETHYLENE GLYCOL DINITRATE,Ethylene glycol dinitrate,"ethane-1,2-diyl dinitrate",7294,DTXSID6027264,[O-][N+](=O)OCCO[N+]([O-])=O,InChI=1S/C2H4N2O6/c5-3(6)9-1-2-10-4(7)8/h1-2H2,UQXKXGWGFRWILX-UHFFFAOYSA-N,?,,"HANSCH,C ET AL. (1995)",1.16
102707,629-04-9,629-04-9,[H]C([H])([H])C([H])([H])C([H])([H])C([H])([H])C([H])([H])C([H])([H])C([H])([H])Br,1-BROMOHEPTANE,1-Bromoheptane,1-bromoheptane,7295,DTXSID7022095,CCCCCCCBr,"InChI=1S/C7H15Br/c1-2-3-4-5-6-7-8/h2-7H2,1H3",LSXKDWGTSHCFPP-UHFFFAOYSA-N,?,,"HANSCH,C ET AL. (1995)",4.36
102709,629-14-1,629-14-1,[H]C([H])([H])C([H])([H])OC([H])([H])C([H])([H])OC([H])([H])C([H])([H])[H],"1,2-DIETHOXYETHANE",Ethylene glycol diethyl ether,"1,2-diethoxyethane",7297,DTXSID5025285,CCOCCOCC,"InChI=1S/C6H14O2/c1-3-7-5-6-8-4-2/h3-6H2,1-2H3",LZDKZFUFMNSQCJ-UHFFFAOYSA-N,?,,"HANSCH,C ET AL. (1995)",0.66
102710,629-20-9,629-20-9,[H]C1=C([H])/C([H])=C([H])\C([H])=C([H])/C([H])=C\1[H],"1,3,5,7-CYCLOOCTATETRAENE","1,3,5,7-Cyclooctatetraene",,7298,DTXSID9060867,C1C=CC=CC=CC=1,"InChI=1S/C8H8/c1-2-4-6-8-7-5-3-1/h1-8H/b2-1-,3-1-,4-2-,5-3-,6-4-,7-5-,8-6-,8-7-",KDUIUFJBNGTBMD-BONZMOEMSA-N,?,,"HANSCH,C ET AL. (1995)",3.08
102711,629-40-3,629-40-3,[H]C([H])(C#N)C([H])([H])C([H])([H])C([H])([H])C([H])([H])C([H])([H])C#N,OCTANEDINITRILE,"1,6-Dicyanohexane",octanedinitrile,7299,DTXSID7022097,N#CCCCCCCC#N,InChI=1S/C8H12N2/c9-7-5-3-1-2-4-6-8-10/h1-6H2,BTNXBLUGMAMSSH-UHFFFAOYSA-N,?,,"TANII,H & HASHIMOTO,K (1985)",0.59
102713,630-18-2,630-18-2,[H]C([H])([H])C(C#N)(C([H])([H])[H])C([H])([H])[H],TRIMETHYLACETONITRILE,"Propanenitrile, 2,2-dimethyl-","2,2-Dimethylpropanenitrile",7301,DTXSID7060887,CC(C)(C)C#N,"InChI=1S/C5H9N/c1-5(2,3)4-6/h1-3H3",JAMNHZBIQDNHMM-UHFFFAOYSA-N,?,,"HANSCH,C ET AL. (1995)",1.08
102714,630-60-4,630-60-4,[H]OC([H])([H])C12C([H])(O[H])C([H])([H])C([H])(OC3([H])OC([H])(C([H])([H])[H])C([H])(O[H])C([H])(O[H])C3([H])O[H])C([H])([H])C1(O[H])C([H])([H])C([H])([H])C1([H])C2([H])C([H])(O[H])C([H])([H])C2(C([H])([H])[H])C([H])(C3=C([H])C(=O)OC3([H])[H])C([H])([H])C([H])([H])C12O[H],OUABAIN,Ouabain,"(1beta,3beta,5beta,11alpha)-3-[(6-deoxy-alpha-L-mannopyranosyl)oxy]-1,5,11,14,19-pentahydroxycard-20(22)-enolide",7302,DTXSID0043765,CC12CC(O)C3C(CCC4(O)CC(CC(O)C43CO)OC3OC(C)C(O)C(O)C3O)C1(O)CCC2C1COC(=O)C=1,"InChI=1S/C29H44O12/c1-13-22(34)23(35)24(36)25(40-13)41-15-8-19(32)28(12-30)21-17(3-5-27(28,37)9-15)29(38)6-4-16(14-7-20(33)39-11-14)26(29,2)10-18(21)31/h7,13,15-19,21-25,30-32,34-38H,3-6,8-12H2,1-2H3",LPMXVESGRSUGHW-UHFFFAOYSA-N,?,,SANGSTER (1994),-2.0
102716,631-07-2,631-07-2,[H]C1=C([H])C([H])=C(C2(C([H])([H])C([H])([H])[H])C(=O)N([H])C(=O)N2[H])C([H])=C1[H],"2,4-IMIDAZOLIDINEDIONE, 5-ETHYL-5-PHENYL-",,,7303,DTXSID80874185,CCC1(NC(=O)NC1=O)c1ccccc1,"InChI=1S/C11H12N2O2/c1-2-11(8-6-4-3-5-7-8)9(14)12-10(15)13-11/h3-7H,2H2,1H3,(H2,12,13,14,15)",UDTWZFJEMMUFLC-UHFFFAOYSA-N,?,,POMONA (1987),1.53
102718,632-46-2,632-46-2,[H]OC(=O)C1=C(C([H])([H])[H])C([H])=C([H])C([H])=C1C([H])([H])[H],"2,6-DIMETHYLBENZOIC ACID","Benzoic acid, 2,6-dimethyl-","2,6-DIMETHYLBENZOIC ACID",7305,DTXSID10212551,Cc1cccc(C)c1C(O)=O,"InChI=1S/C9H10O2/c1-6-4-3-5-7(2)8(6)9(10)11/h3-5H,1-2H3,(H,10,11)",HCBHQDKBSKYGCK-UHFFFAOYSA-N,?,,"SOTOMATSU,T ET AL. (1993)",2.21
102719,633-72-7,633-72-7,[H]OC([H])([H])C1=C(C([H])([H])O[H])C(OC([H])([H])[H])=C(C([H])([H])[H])N=C1[H],3-O-METHYLPYRIDOXOL,PUBCHEM_14419841,C9H13NO3,7306,DTXSID50560083,Cc1[n]cc(CO)c(CO)c1OC,"InChI=1S/C9H13NO3/c1-6-9(13-2)8(5-12)7(4-11)3-10-6/h3,11-12H,4-5H2,1-2H3",KHUNHYCUXIEXSO-UHFFFAOYSA-N,?,,"HANSCH,C ET AL. (1995)",-0.1
102720,634-36-6,634-36-6,[H]C1=C([H])C(OC([H])([H])[H])=C(OC([H])([H])[H])C(OC([H])([H])[H])=C1[H],"BENZENE, 1,2,3-TRIMETHOXY-","Benzene, 1,2,3-trimethoxy-","1,2,3-Trimethoxybenzene",7307,DTXSID1060899,COc1c(cccc1OC)OC,"InChI=1S/C9H12O3/c1-10-7-5-4-6-8(11-2)9(7)12-3/h4-6H,1-3H3",CRUILBNAQILVHZ-UHFFFAOYSA-N,?,,POMONA (1987),1.53
102722,634-67-3,634-67-3,[H]C1=C(Cl)C(Cl)=C(Cl)C(N([H])[H])=C1[H],"2,3,4-TRICHLOROANILINE","2,3,4-Trichloroaniline","2,3,4-trichloroaniline",7309,DTXSID2022098,Nc1ccc(Cl)c(Cl)c1Cl,"InChI=1S/C6H4Cl3N/c7-3-1-2-4(10)6(9)5(3)8/h1-2H,10H2",RRJUYQOFOMFVQS-UHFFFAOYSA-N,?,,SANGSTER (1994),3.33
102723,634-83-3,634-83-3,[H]C1=C(N([H])[H])C(Cl)=C(Cl)C(Cl)=C1Cl,"2,3,4,5-TETRACHLOROANILINE","2,3,4,5-Tetrachloroaniline","2,3,4,5-TETRACHLOROANILINE",7310,DTXSID70212810,Nc1cc(Cl)c(Cl)c(Cl)c1Cl,"InChI=1S/C6H3Cl4N/c7-2-1-3(11)5(9)6(10)4(2)8/h1H,11H2",GBKZRUCVLTWAML-UHFFFAOYSA-N,?,,SANGSTER (1994),4.27
102724,634-90-2,634-90-2,[H]C1=C(Cl)C([H])=C(Cl)C(Cl)=C1Cl,"1,2,3,5-TETRACHLOROBENZENE","1,2,3,5-Tetrachlorobenzene","1,2,3,5-tetrachlorobenzene",7311,DTXSID1026089,Clc1cc(Cl)c(Cl)c(Cl)c1,InChI=1S/C6H2Cl4/c7-3-1-4(8)6(10)5(9)2-3/h1-2H,QZYNWJQFTJXIRN-UHFFFAOYSA-N,?,,"HANSCH,C ET AL. (1995)",4.56
102726,634-93-5,634-93-5,[H]C1=C(Cl)C([H])=C(Cl)C(N([H])[H])=C1Cl,"2,4,6-TRICHLOROANILINE","2,4,6-Trichloroaniline","2,4,6-trichloroaniline",7313,DTXSID6021379,Nc1c(Cl)cc(Cl)cc1Cl,"InChI=1S/C6H4Cl3N/c7-3-1-4(8)6(10)5(9)2-3/h1-2H,10H2",NATVSFWWYVJTAZ-UHFFFAOYSA-N,?,,SANGSTER (1994),3.52
102727,634-97-9,634-97-9,[H]OC(=O)C1=C([H])C([H])=C([H])N1[H],PYRROLE-2-CARBOXYLIC ACID,2-Pyrrolecarboxylic acid,1H-Pyrrole-2-carboxylic acid,7314,DTXSID50212813,OC(=O)c1ccc[nH]1,"InChI=1S/C5H5NO2/c7-5(8)4-2-1-3-6-4/h1-3,6H,(H,7,8)",WRHZVMBBRYBTKZ-UHFFFAOYSA-N,?,,POMONA (1987),0.85
102728,635-21-2,635-21-2,[H]OC(=O)C1=C([H])C(Cl)=C([H])C([H])=C1N([H])[H],2-AMINO-5-CHLOROBENZOIC ACID,"Benzoic acid, 2-amino-5-chloro-",2-AMINO-5-CHLOROBENZOIC ACID,7315,DTXSID8060901,Nc1ccc(Cl)cc1C(O)=O,"InChI=1S/C7H6ClNO2/c8-4-1-2-6(9)5(3-4)7(10)11/h1-3H,9H2,(H,10,11)",IFXKXCLVKQVVDI-UHFFFAOYSA-N,?,,"HANSCH,C ET AL. (1995)",1.57
102730,635-46-1,635-46-1,[H]C1=C([H])C([H])=C2C(=C1[H])N([H])C([H])([H])C([H])([H])C2([H])[H],"1,2,3,4-TETRAHYDROQUINOLINE","1,2,3,4-Tetrahydroquinoline","1,2,3,4-Tetrahydroquinoline",7317,DTXSID8060903,C1CCNc2ccccc21,"InChI=1S/C9H11N/c1-2-6-9-8(4-1)5-3-7-10-9/h1-2,4,6,10H,3,5,7H2",LBUJPTNKIBCYBY-UHFFFAOYSA-N,?,,"HANSCH,C ET AL. (1995)",2.29
102731,635-90-5,635-90-5,[H]C1=C([H])C([H])=C(N2C([H])=C([H])C([H])=C2[H])C([H])=C1[H],"PYRROLE, 1-PHENYL-",1-Phenylpyrrole,1-Phenylpyrrole,7318,DTXSID60212905,c1ccccc1-[n]1cccc1,InChI=1S/C10H9N/c1-2-6-10(7-3-1)11-8-4-5-9-11/h1-9H,GEZGAZKEOUKLBR-UHFFFAOYSA-N,?,,"HANSCH,C ET AL. (1995)",3.08
102732,636-04-4,636-04-4,[H]C1=C([H])C([H])=C(C(=S)N([H])C2=C([H])C([H])=C([H])C([H])=C2[H])C([H])=C1[H],"BENZENECARBOTHIOAMIDE, N-PHENYL-","Benzenecarbothioamide, N-phenyl-",N-Phenylbenzenecarbothioamide,7319,DTXSID3060908,S=C(Nc1ccccc1)c1ccccc1,"InChI=1S/C13H11NS/c15-13(11-7-3-1-4-8-11)14-12-9-5-2-6-10-12/h1-10H,(H,14,15)",BOQKCADLPNLYCZ-UHFFFAOYSA-N,?,,POMONA (1987),3.03
102734,636-30-6,636-30-6,[H]C1=C(Cl)C(Cl)=C([H])C(N([H])[H])=C1Cl,"2,4,5-TRICHLOROANILINE","2,4,5-Trichloroaniline","2,4,5-trichloroaniline",7321,DTXSID5044152,Nc1cc(Cl)c(Cl)cc1Cl,"InChI=1S/C6H4Cl3N/c7-3-1-5(9)6(10)2-4(3)8/h1-2H,10H2",GUMCAKKKNKYFEB-UHFFFAOYSA-N,?,,SANGSTER (1994),3.45
102735,636-72-6,636-72-6,[H]OC([H])([H])C1=C([H])C([H])=C([H])S1,2-HYDROXYMETHYLTHIOPHENE,2-Thienylmethanol,thiophen-2-ylmethanol,7322,DTXSID50212979,OCc1ccc[s]1,"InChI=1S/C5H6OS/c6-4-5-2-1-3-7-5/h1-3,6H,4H2",ZPHGMBGIFODUMF-UHFFFAOYSA-N,?,,"HANSCH,C ET AL. (1995)",0.87
102736,636-97-5,636-97-5,[H]C1=C([H])C([N+](=O)[O-])=C([H])C([H])=C1C(=O)N([H])N([H])[H],4-NITROBENZOYLHYDRAZINE,4-Nitrobenzoylhydrazine,4-Nitrobenzohydrazide,7323,DTXSID2060913,NNC(=O)c1ccc(cc1)[N+]([O-])=O,"InChI=1S/C7H7N3O3/c8-9-7(11)5-1-3-6(4-2-5)10(12)13/h1-4H,8H2,(H,9,11)",FKZXYJYTUSGIQE-UHFFFAOYSA-N,?,,"HANSCH,C ET AL. (1995)",0.35
102738,637-53-6,637-53-6,[H]C1=C([H])C([H])=C(N([H])C(=S)C([H])([H])[H])C([H])=C1[H],THIOACETANILIDE,Thioacetanilide,N-phenylethanethioamide,7325,DTXSID1060920,CC(=S)Nc1ccccc1,"InChI=1S/C8H9NS/c1-7(10)9-8-5-3-2-4-6-8/h2-6H,1H3,(H,9,10)",MWCGLTCRJJFXKR-UHFFFAOYSA-N,?,,"HANSCH,C ET AL. (1995)",1.71
102739,637-59-2,637-59-2,[H]C1=C([H])C([H])=C(C([H])([H])C([H])([H])C([H])([H])Br)C([H])=C1[H],"PROPYLBROMIDE, G-PHENYL",(3-Bromopropyl)benzene,3-bromopropylbenzene,7326,DTXSID1060924,BrCCCc1ccccc1,"InChI=1S/C9H11Br/c10-8-4-7-9-5-2-1-3-6-9/h1-3,5-6H,4,7-8H2",XMZQWZJMTBCUFT-UHFFFAOYSA-N,?,,"HANSCH,C ET AL. (1995)",3.72
102740,637-61-6,637-61-6,[H]C1=C([H])C(=NCl)C([H])=C([H])C1=O,QUINONE CHLOROIMIDE,"2,5-Cyclohexadien-1-one, 4-(chloroimino)-","4-chloroiminocyclohexa-2,5-dien-1-one",7327,DTXSID6060925,O=C1C=CC(C=C1)=NCl,InChI=1S/C6H4ClNO/c7-8-5-1-3-6(9)4-2-5/h1-4H,ITUYMTWJWYTELW-UHFFFAOYSA-N,?,,POMONA (1987),1.26
102742,638-20-0,638-20-0,[H]N(C(=O)N([H])C(=O)C([H])([H])[H])C(=O)C([H])([H])[H],"1,3-DIACETYLUREA","N,N'-Carbonylbis(acetamide)",N-(acetylcarbamoyl)acetamide,7329,DTXSID10213240,CC(=O)NC(=O)NC(C)=O,"InChI=1S/C5H8N2O3/c1-3(8)6-5(10)7-4(2)9/h1-2H3,(H2,6,7,8,9,10)",UJQLDFMZDSDZEY-UHFFFAOYSA-N,?,,"HANSCH,C ET AL. (1995)",-0.68
102743,638-42-6,638-42-6,[H]N([H])C(=O)OC([H])([H])C([H])([H])C([H])([H])C([H])([H])C([H])([H])[H],O-PENTYL CARBAMATE,"Carbamic acid, pentyl ester (8CI)(9CI)",Pentyl carbamate,7330,DTXSID90213243,CCCCCOC(N)=O,"InChI=1S/C6H13NO2/c1-2-3-4-5-9-6(7)8/h2-5H2,1H3,(H2,7,8)",MYDQAEQZZKVJSL-UHFFFAOYSA-N,?,,"HANSCH,C ET AL. (1995)",1.35
102745,640-15-3,640-15-3,[H]C([H])([H])OP(=S)(OC([H])([H])[H])SC([H])([H])C([H])([H])SC([H])([H])C([H])([H])[H],THIOMETON,Thiometon,"S-[2-(ethylsulfanyl)ethyl] O,O-dimethyl phosphorodithioate",7331,DTXSID9042469,CCSCCSP(=S)(OC)OC,"InChI=1S/C6H15O2PS3/c1-4-11-5-6-12-9(10,7-2)8-3/h4-6H2,1-3H3",OPASCBHCTNRLRM-UHFFFAOYSA-N,?,,"TOMLIN,C (1997)",3.15
102747,640-61-9,640-61-9,[H]C1=C([H])C(S(=O)(=O)N([H])C([H])([H])[H])=C([H])C([H])=C1C([H])([H])[H],"BENZENESULFONAMIDE, N,4-DIMETHYL-","Benzenesulfonamide, N,4-dimethyl-","N,4-Dimethylbenzenesulfonamide",7333,DTXSID5060938,Cc1ccc(cc1)S(=O)(=O)NC,"InChI=1S/C8H11NO2S/c1-7-3-5-8(6-4-7)12(10,11)9-2/h3-6,9H,1-2H3",GWLOGZRVYXAHRE-UHFFFAOYSA-N,?,,"LARSEN,JD ET AL. (1988)",1.28
102748,640-79-9,NOCAS_862344,[H]OC(=O)C([H])([H])N([H])C(=O)C([H])([H])C([H])([H])C([H])(C([H])([H])[H])C1([H])C([H])([H])C([H])([H])C2([H])C3([H])C([H])(O[H])C([H])([H])C4([H])C([H])([H])C([H])(O[H])C([H])([H])C([H])([H])C4(C([H])([H])[H])C3([H])C([H])([H])C([H])([H])C12C([H])([H])[H],GLYCOCHENODEOXYCHOLIC ACID,,,7334,DTXSID20862344,CC(CCC(=O)NCC(O)=O)C1CCC2C3C(CCC21C)C1(C)CCC(O)CC1CC3O,"InChI=1S/C26H43NO5/c1-15(4-7-22(30)27-14-23(31)32)18-5-6-19-24-20(9-11-26(18,19)3)25(2)10-8-17(28)12-16(25)13-21(24)29/h15-21,24,28-29H,4-14H2,1-3H3,(H,27,30)(H,31,32)",GHCZAUBVMUEKKP-UHFFFAOYSA-N,?,,"RODA,A ET AL. (1990)",2.12
102750,643-28-7,643-28-7,[H]C1=C([H])C([H])=C(C([H])(C([H])([H])[H])C([H])([H])[H])C(N([H])[H])=C1[H],"BENZENAMINE, 2-(1-METHYLETHYL)-",2-Isopropylaniline,2-isopropylaniline,7335,DTXSID6052328,CC(C)c1ccccc1N,"InChI=1S/C9H13N/c1-7(2)8-5-3-4-6-9(8)10/h3-7H,10H2,1-2H3",YKOLZVXSPGIIBJ-UHFFFAOYSA-N,?,,"HANSCH,C ET AL. (1995)",2.12
102752,644-35-9,644-35-9,[H]OC1=C([H])C([H])=C([H])C([H])=C1C([H])([H])C([H])([H])C([H])([H])[H],O-PROPYLPHENOL,2-Propylphenol,2-propylphenol,7337,DTXSID9047702,CCCc1ccccc1O,"InChI=1S/C9H12O/c1-2-5-8-6-3-4-7-9(8)10/h3-4,6-7,10H,2,5H2,1H3",LCHYEKKJCUJAKN-UHFFFAOYSA-N,?,,"HANSCH,C ET AL. (1995)",2.93
102753,644-46-2,644-46-2,[H]OC1=C([H])OC(C([H])([H])[H])=C([H])C1=O,"4H-PYRAN-4-ONE, 5-HYDROXY-2-METHYL-","4H-Pyran-4-one, 5-hydroxy-2-methyl-",5-hydroxy-2-methylpyran-4-one,7338,DTXSID70214652,CC1=CC(=O)C(O)=CO1,"InChI=1S/C6H6O3/c1-4-2-5(7)6(8)3-9-4/h2-3,8H,1H3",IQXWFHDFTAZGNB-UHFFFAOYSA-N,?,,"ELLIS,BL ET AL. (1996)",-0.59
102754,645-00-1,645-00-1,[H]C1=C([H])C(I)=C([H])C([N+](=O)[O-])=C1[H],3-IODONITROBENZENE,1-Iodo-3-nitrobenzene,1-iodo-3-nitrobenzene,7339,DTXSID5025449,[O-][N+](=O)c1cccc(I)c1,InChI=1S/C6H4INO2/c7-5-2-1-3-6(4-5)8(9)10/h1-4H,CBYAZOKPJYBCHE-UHFFFAOYSA-N,?,,"HANSCH,C ET AL. (1995)",2.94
102756,645-09-0,645-09-0,[H]C1=C([H])C(C(=O)N([H])[H])=C([H])C([N+](=O)[O-])=C1[H],M-NITROBENZAMIDE,3-Nitrobenzamide,3-nitrobenzamide,7341,DTXSID5025732,NC(=O)c1cc(ccc1)[N+]([O-])=O,"InChI=1S/C7H6N2O3/c8-7(10)5-2-1-3-6(4-5)9(11)12/h1-4H,(H2,8,10)",KWAYEPXDGHYGRW-UHFFFAOYSA-N,?,,"HANSCH,C ET AL. (1995)",0.77
102757,645-13-6,645-13-6,[H]C1=C([H])C(C([H])(C([H])([H])[H])C([H])([H])[H])=C([H])C([H])=C1C(=O)C([H])([H])[H],P-ISOPROPYLACETOPHENONE,1-[4-(1-Methylethyl)phenyl]ethan-1-one,1-(4-isopropylphenyl)ethanone,7342,DTXSID0052330,CC(=O)c1ccc(cc1)C(C)C,"InChI=1S/C11H14O/c1-8(2)10-4-6-11(7-5-10)9(3)12/h4-8H,1-3H3",PDLCCNYKIIUWHA-UHFFFAOYSA-N,?,,"HANSCH,C ET AL. (1995)",2.98
102758,645-56-7,645-56-7,[H]OC1=C([H])C([H])=C(C([H])([H])C([H])([H])C([H])([H])[H])C([H])=C1[H],4-PROPYLPHENOL,4-Propylphenol,4-propylphenol,7343,DTXSID9022100,CCCc1ccc(O)cc1,"InChI=1S/C9H12O/c1-2-3-8-4-6-9(10)7-5-8/h4-7,10H,2-3H2,1H3",KLSLBUSXWBJMEC-UHFFFAOYSA-N,?,,SANGSTER (1993),3.2
102760,646-06-0,646-06-0,[H]C1([H])OC([H])([H])C([H])([H])O1,"1,3-DIOXALANE","1,3-Dioxolane","1,3-dioxolane",7345,DTXSID4027284,C1OCCO1,InChI=1S/C3H6O2/c1-2-5-3-4-1/h1-3H2,WNXJIVFYUVYPPR-UHFFFAOYSA-N,?,,"HANSCH,C ET AL. (1995)",-0.37
102761,646-14-0,646-14-0,[H]C([H])([H])C([H])([H])C([H])([H])C([H])([H])C([H])([H])C([H])([H])[N+](=O)[O-],NITROHEXANE,1-Nitrohexane,1-nitrohexane,7346,DTXSID3025758,CCCCCC[N+]([O-])=O,"InChI=1S/C6H13NO2/c1-2-3-4-5-6-7(8)9/h2-6H2,1H3",FEYJIFXFOHFGCC-UHFFFAOYSA-N,?,,"HANSCH,C ET AL. (1995)",2.7
102762,646-20-8,646-20-8,[H]C([H])(C#N)C([H])([H])C([H])([H])C([H])([H])C([H])([H])C#N,HEPTANEDINITRILE,Heptanedinitrile,Heptanedinitrile,7347,DTXSID3060952,N#CCCCCCC#N,InChI=1S/C7H10N2/c8-6-4-2-1-3-5-7-9/h1-5H2,LLEVMYXEJUDBTA-UHFFFAOYSA-N,?,,"TANII,H & HASHIMOTO,K (1985)",0.05
102764,651-06-9,651-06-9,[H]C1=NC(N([H])S(=O)(=O)C2=C([H])C([H])=C(N([H])[H])C([H])=C2[H])=NC([H])=C1OC([H])([H])[H],SULFAMETER,Sulfameter,4-amino-N-(5-methoxypyrimidin-2-yl)benzenesulfonamide,7349,DTXSID5023613,COc1c[n]c(NS(=O)(=O)c2ccc(N)cc2)[n]c1,"InChI=1S/C11H12N4O3S/c1-18-9-6-13-11(14-7-9)15-19(16,17)10-4-2-8(12)3-5-10/h2-7H,12H2,1H3,(H,13,14,15)",GPTONYMQFTZPKC-UHFFFAOYSA-N,?,,"HANSCH,C ET AL. (1995)",0.41
102765,651-85-4,651-85-4,[H]C([H])([H])S(=O)(=O)C1=C(F)C(F)=C(F)C(F)=C1F,PENTAFLUOROPHENYL METHYL SUFONE,"Sulfone, methyl pentafluorophenyl","1,2,3,4,5-pentafluoro-6-methylsulfonylbenzene",7350,DTXSID30215403,CS(=O)(=O)c1c(F)c(F)c(F)c(F)c1F,"InChI=1S/C7H3F5O2S/c1-15(13,14)7-5(11)3(9)2(8)4(10)6(7)12/h1H3",WFYROSQTNAJIIF-UHFFFAOYSA-N,?,,"HANSCH,C ET AL. (1995)",1.11
102766,652-32-4,652-32-4,[H]OC(=O)C1=C(F)C(F)=C(C([H])([H])[H])C(F)=C1F,"BENZOIC ACID, 2,3,5,6-TETRAFLUORO-4-METHYL-","p-Toluic acid, 2,3,5,6-tetrafluoro-","2,3,5,6-Tetrafluoro-4-methylbenzoic acid",7351,DTXSID70215508,Cc1c(F)c(F)c(C(O)=O)c(F)c1F,"InChI=1S/C8H4F4O2/c1-2-4(9)6(11)3(8(13)14)7(12)5(2)10/h1H3,(H,13,14)",COOULIOYEXBFDT-UHFFFAOYSA-N,?,,SANGSTER (1994),3.15
102768,654-13-7,NOCAS_871804,[H]OC(=O)C([H])([H])C([H])(N1N=NC2=C([H])C([H])=C([H])C([H])=C21)C([H])([H])[H],"1H-BENZOTRIAZOLE-1-PROPANOIC ACID, ?-METHYL-",,,7353,DTXSID10871804,CC(CC(O)=O)[n]1[n][n]c2ccccc12,"InChI=1S/C10H11N3O2/c1-7(6-10(14)15)13-9-5-3-2-4-8(9)11-12-13/h2-5,7H,6H2,1H3,(H,14,15)",FEKISXNJRGSDHP-UHFFFAOYSA-N,?,,"SPARATORE,F ET AL. (1988)",-0.2
102769,654-15-9,654-15-9,[H]OC(=O)C([H])([H])C([H])([H])N1N=NC2=C([H])C([H])=C([H])C([H])=C21,1-(2-CARBOXYET)BENZOTRIAZOLE,654-15-9,C9H9N3O2,7354,DTXSID90340280,OC(=O)CC[n]1[n][n]c2ccccc12,"InChI=1S/C9H9N3O2/c13-9(14)5-6-12-8-4-2-1-3-7(8)10-11-12/h1-4H,5-6H2,(H,13,14)",NZNPMUUOXMZCBF-UHFFFAOYSA-N,?,,"HANSCH,C ET AL. (1995)",-0.63