ChemID,source_casrn,CAS,SMILES,NAME,preferred_name,iupac,MPID,dsstox_substance_id,Canonical_QSARr,InChI_Code_QSARr,InChI Key_QSARr,Salt_Solvent,Salt_Solvent_ID,Kow Reference,LogP
103172,1081-34-1,1081-34-1,[H]C1=C([H])C([H])=C(C2=C([H])C([H])=C(C3=C([H])C([H])=C([H])S3)S2)S1,"2,5-THIOPHENYL-THIOPHENE",alpha-Terthiophene,"2,2':5',2''-terthiophene",7732,DTXSID2041206,c1cc([s]c1-c1ccc[s]1)-c1ccc[s]1,InChI=1S/C12H8S3/c1-3-9(13-7-1)11-5-6-12(15-11)10-4-2-8-14-10/h1-8H,KXSFECAJUBPPFE-UHFFFAOYSA-N,?,,"MCLACHLAN,D ET AL. (1986)",5.57
103173,1081-77-2,1081-77-2,[H]C1=C([H])C([H])=C(C([H])([H])C([H])([H])C([H])([H])C([H])([H])C([H])([H])C([H])([H])C([H])([H])C([H])([H])C([H])([H])[H])C([H])=C1[H],N-NONYLBENZENE,1-Phenylnonane,nonylbenzene,7733,DTXSID7040786,CCCCCCCCCc1ccccc1,"InChI=1S/C15H24/c1-2-3-4-5-6-7-9-12-15-13-10-8-11-14-15/h8,10-11,13-14H,2-7,9,12H2,1H3",LIXVMPBOGDCSRM-UHFFFAOYSA-N,?,,"SHERBLOM,PM & EGANHOUSE,RP (1988)",7.11
103174,1082-23-1,1082-23-1,[H]C1=C(OC([H])([H])[H])C(OC([H])([H])[H])=C(OC([H])([H])[H])C(C([H])([H])C([H])(N([H])[H])C([H])([H])[H])=C1[H],"2,3,4-TRIMEO AMPHETAMINE",,,7734,DTXSID60874365,COc1c(OC)c(CC(C)N)ccc1OC,"InChI=1S/C12H19NO3/c1-8(13)7-9-5-6-10(14-2)12(16-4)11(9)15-3/h5-6,8H,7,13H2,1-4H3",LWDQPPLPHGXYLG-UHFFFAOYSA-N,?,,"HANSCH,C & LEO,AJ (1985)",1.51
103176,1083-09-6,1083-09-6,[H]C1=C(OC([H])([H])[H])C(C([H])([H])C([H])(N([H])[H])C([H])([H])[H])=C([H])C(OC([H])([H])[H])=C1OC([H])([H])[H],"2,4,5-TRIMEO AMPHETAMINE",,,7736,DTXSID00874364,CC(N)Cc1cc(OC)c(cc1OC)OC,"InChI=1S/C12H19NO3/c1-8(13)5-9-6-11(15-3)12(16-4)7-10(9)14-2/h6-8H,5,13H2,1-4H3",TVSIMAWGATVNGK-UHFFFAOYSA-N,?,,"HANSCH,C & LEO,AJ (1985)",1.74
103177,1083-27-8,1083-27-8,[H]OC1=C([H])C([H])=C(C(=O)OC([H])([H])C([H])([H])C([H])([H])C([H])([H])C([H])([H])C([H])([H])[H])C([H])=C1[H],HEXYL P-HYDROXYBENZOATE,Hexylparaben,hexyl 4-hydroxybenzoate,7737,DTXSID1044514,CCCCCCOC(=O)c1ccc(O)cc1,"InChI=1S/C13H18O3/c1-2-3-4-5-10-16-13(15)11-6-8-12(14)9-7-11/h6-9,14H,2-5,10H2,1H3",ULULAZKOCFNOIM-UHFFFAOYSA-N,?,,"HANSCH,C ET AL. (1995)",4.35
103178,1083-41-6,1083-41-6,[H]OC1=C([H])C(C(=O)OC([H])([H])C([H])([H])C([H])([H])C([H])([H])[H])=C([H])C(O[H])=C1O[H],BUTYL GALLATE,n-Butyl gallate,"Butyl 3,4,5-trihydroxybenzoate",7738,DTXSID40148490,CCCCOC(=O)c1cc(O)c(O)c(O)c1,"InChI=1S/C11H14O5/c1-2-3-4-16-11(15)7-5-8(12)10(14)9(13)6-7/h5-6,12-14H,2-4H2,1H3",XOPOEBVTQYAOSV-UHFFFAOYSA-N,?,,"HANSCH,C ET AL. (1995)",2.41
103180,1083-59-6,1083-59-6,[H]C1=NC(/C([H])=C(\[H])C2=C([H])C([H])=C([N+](=O)[O-])O2)=NC([H])=C1[H],2(5-NO2-2-FURFURYLIDENE)PYRIMIDINE,,,7740,DTXSID80876189,[O-][N+](=O)c1ccc(C=Cc2[n]ccc[n]2)o1,InChI=1S/C10H7N3O3/c14-13(15)10-5-3-8(16-10)2-4-9-11-6-1-7-12-9/h1-7H/b4-2+,QYWCIRZOGSMFAW-DUXPYHPUSA-N,?,,"HANSCH,C ET AL. (1995)",1.34
103181,1085-12-7,1085-12-7,[H]OC1=C([H])C([H])=C(C(=O)OC([H])([H])C([H])([H])C([H])([H])C([H])([H])C([H])([H])C([H])([H])C([H])([H])[H])C([H])=C1[H],HEPTYL P-HYDROXYBENZOATE,Heptylparaben,heptyl 4-hydroxybenzoate,7741,DTXSID4022523,CCCCCCCOC(=O)c1ccc(O)cc1,"InChI=1S/C14H20O3/c1-2-3-4-5-6-11-17-14(16)12-7-9-13(15)10-8-12/h7-10,15H,2-6,11H2,1H3",ZTJORNVITHUQJA-UHFFFAOYSA-N,?,,"HANSCH,C ET AL. (1995)",4.83
103182,1085-98-9,1085-98-9,[H]C1=C([H])C([H])=C(N(SC(F)(Cl)Cl)S(=O)(=O)N(C([H])([H])[H])C([H])([H])[H])C([H])=C1[H],DICHLOFLUANID,Dichlofluanid,"N-{[dichloro(fluoro)methyl]sulfanyl}-N',N'-dimethyl-N-phenylsulfuric diamide",7742,DTXSID5041851,CN(C)S(=O)(=O)N(SC(F)(Cl)Cl)c1ccccc1,"InChI=1S/C9H11Cl2FN2O2S2/c1-13(2)18(15,16)14(17-9(10,11)12)8-6-4-3-5-7-8/h3-7H,1-2H3",WURGXGVFSMYFCG-UHFFFAOYSA-N,?,,"TOMLIN,C (1997)",3.7
103184,1088-11-5,1088-11-5,[H]C1=C([H])C([H])=C(C2=NC([H])([H])C(=O)N([H])C3=C([H])C([H])=C(Cl)C([H])=C23)C([H])=C1[H],"1,4-BENZDIAZEPIN-2-ONE-5-PH-7-CL",Desmethyldiazepam,"7-chloro-5-phenyl-1,3-dihydro-2H-1,4-benzodiazepin-2-one",7744,DTXSID2049000,O=C1CN=C(c2cc(Cl)ccc2N1)c1ccccc1,"InChI=1S/C15H11ClN2O/c16-11-6-7-13-12(8-11)15(17-9-14(19)18-13)10-4-2-1-3-5-10/h1-8H,9H2,(H,18,19)",AKPLHCDWDRPJGD-UHFFFAOYSA-N,?,,"HANSCH,C ET AL. (1995)",2.93
103185,1090-16-0,1090-16-0,[H]C1=C([H])C([H])=C(N([H])C2=C(Cl)C(=O)C3=C([H])C([H])=C([H])C([H])=C3C2=O)C([H])=C1[H],"1,4-NAPHTHOQUINONE,3-ANILINO-2-CHLORO","1,4-Naphthoquinone, 2-anilino-3-chloro-","2-chloro-3-(phenylamino)naphthalene-1,4-dione",7745,DTXSID40148793,O=C1C(Nc2ccccc2)=C(Cl)C(=O)c2ccccc12,"InChI=1S/C16H10ClNO2/c17-13-14(18-10-6-2-1-3-7-10)16(20)12-9-5-4-8-11(12)15(13)19/h1-9,18H",CIWCIDRTACZSAZ-UHFFFAOYSA-N,?,,"HANSCH,C ET AL. (1995)",4.22
103186,1113-02-6,1113-02-6,[H]N(C(=O)C([H])([H])SP(=O)(OC([H])([H])[H])OC([H])([H])[H])C([H])([H])[H],DIMETHOXON,Omethoate,"O,O-dimethyl S-[2-(methylamino)-2-oxoethyl] phosphorothioate",7746,DTXSID4037580,CNC(=O)CSP(=O)(OC)OC,"InChI=1S/C5H12NO4PS/c1-6-5(7)4-12-11(8,9-2)10-3/h4H2,1-3H3,(H,6,7)",PZXOQEXFMJCDPG-UHFFFAOYSA-N,?,,"TOMLIN,C (1997)",-0.74
103188,1116-82-1,1116-82-1,[H]C([H])(C#N)C([H])([H])N(N=O)C([H])([H])C([H])([H])C#N,N-NITROSO-BIS(2-CYANOET)AMINE,"Propanenitrile, 3,3'-(nitrosoimino)bis- (9CI)","N,N-bis(2-cyanoethyl)nitrous amide",7748,DTXSID10149696,N#CCCN(CCC#N)N=O,"InChI=1S/C6H8N4O/c7-3-1-5-10(9-11)6-2-4-8/h1-2,5-6H2",MHVHMDVFCDHLPF-UHFFFAOYSA-N,?,,"HANSCH,C ET AL. (1995)",0.08
103190,1118-68-9,1118-68-9,[H]OC(=O)C([H])([H])N(C([H])([H])[H])C([H])([H])[H],"N,N-DIMETHYLGLYCINE","Glycine, N,N-dimethyl-",2-dimethylaminoacetic acid,7749,DTXSID6074336,CN(C)CC(O)=O,"InChI=1S/C4H9NO2/c1-5(2)3-4(6)7/h3H2,1-2H3,(H,6,7)",FFDGPVCHZBVARC-UHFFFAOYSA-N,?,,"TSAI,RS ET AL. (1991)",-2.91
103191,1119-40-0,1119-40-0,[H]C([H])([H])OC(=O)C([H])([H])C([H])([H])C([H])([H])C(=O)OC([H])([H])[H],"PENTANEDIOIC ACID, DIMETHYL ESTER",Dimethyl glutarate,C7H12O4,7750,DTXSID3025122,COC(=O)CCCC(=O)OC,"InChI=1S/C7H12O4/c1-10-6(8)4-3-5-7(9)11-2/h3-5H2,1-2H3",XTDYIOOONNVFMA-UHFFFAOYSA-N,?,,"HANSCH,C ET AL. (1995)",0.62
103193,1120-34-9,1120-34-9,[H]/C(=C(/[H])C([H])([H])C([H])([H])C([H])([H])C([H])([H])C([H])([H])C([H])([H])C([H])([H])C([H])([H])C([H])([H])C([H])([H])C([H])([H])C(=O)OC([H])([H])[H])C([H])([H])C([H])([H])C([H])([H])C([H])([H])C([H])([H])C([H])([H])C([H])([H])C([H])([H])[H],"13-Docosenoic acid, methyl ester, (Z)-",Methyl (Z)-docos-13-enoate,methyl (13Z)-docos-13-enoate,7752,DTXSID0051578,CCCCCCCCC=CCCCCCCCCCCCC(=O)OC,"InChI=1S/C23H44O2/c1-3-4-5-6-7-8-9-10-11-12-13-14-15-16-17-18-19-20-21-22-23(24)25-2/h10-11H,3-9,12-22H2,1-2H3/b11-10+",ZYNDJIBBPLNPOW-ZHACJKMWSA-N,?,,"KROP,HB ET AL. (1997)",9.32
103194,1120-87-2,1120-87-2,[H]C1=NC([H])=C([H])C(Br)=C1[H],4-BROMOPYRIDINE,4-Bromopyridine,4-BROMOPYRIDINE,7753,DTXSID1061520,Brc1cc[n]cc1,InChI=1S/C5H4BrN/c6-5-1-3-7-4-2-5/h1-4H,BSDGZUDFPKIYQG-UHFFFAOYSA-N,?,,"HANSCH,C ET AL. (1995)",1.54
103195,1120-88-3,1120-88-3,[H]C1=NN=C([H])C(C([H])([H])[H])=C1[H],"PYRIDAZINE, 4-METHYL-",4-Methylpyridazine,4-Methylpyridazine,7754,DTXSID90149811,Cc1c[n][n]cc1,"InChI=1S/C5H6N2/c1-5-2-3-6-7-4-5/h2-4H,1H3",AIKUBOPKWKZULG-UHFFFAOYSA-N,?,,"YAMAGAMI,C ET AL. (1990)",-0.32
103197,1120-95-2,1120-95-2,[H]C1=C([H])C([H])=C(Cl)N=N1,"PYRIDAZINE, 3-CHLORO-",3-Chloropyridazine,C4H3ClN2,7756,DTXSID60460767,Clc1ccc[n][n]1,InChI=1S/C4H3ClN2/c5-4-2-1-3-6-7-4/h1-3H,IBWYHNOFSKJKKY-UHFFFAOYSA-N,?,,"YAMAGAMI,C ET AL. (1990)",0.1
103198,1121-07-9,1121-07-9,[H]C([H])([H])N1C(=O)C([H])([H])C([H])([H])C1=O,N-METHYLSUCCINIMIDE,"2,5-Pyrrolidinedione, 1-methyl-",,7757,DTXSID40149902,CN1C(=O)CCC1=O,"InChI=1S/C5H7NO2/c1-6-4(7)2-3-5(6)8/h2-3H2,1H3",KYEACNNYFNZCST-UHFFFAOYSA-N,?,,"HANSCH,C ET AL. (1995)",-0.95
103200,1121-60-4,1121-60-4,[H]C(=O)C1=NC([H])=C([H])C([H])=C1[H],2-PYRIDINECARBOXYALDEHYDE,2-Pyridinecarboxaldehyde,Pyridine-2-carbaldehyde,7758,DTXSID1061522,O=Cc1cccc[n]1,InChI=1S/C6H5NO/c8-5-6-3-1-2-4-7-6/h1-5H,CSDSSGBPEUDDEE-UHFFFAOYSA-N,?,,"HANSCH,C ET AL. (1995)",0.44
103202,1122-54-9,1122-54-9,[H]C1=NC([H])=C([H])C(C(=O)C([H])([H])[H])=C1[H],4-ACETYLPYRIDINE,4-Acetylpyridine,1-(pyridin-4-yl)ethanone,7760,DTXSID0022147,CC(=O)c1cc[n]cc1,"InChI=1S/C7H7NO/c1-6(9)7-2-4-8-5-3-7/h2-5H,1H3",WMQUKDQWMMOHSA-UHFFFAOYSA-N,?,,"HANSCH,C ET AL. (1995)",0.48
103203,1122-58-3,1122-58-3,[H]C1=NC([H])=C([H])C(N(C([H])([H])[H])C([H])([H])[H])=C1[H],4-DIMETHYLAMINOPYRIDINE,"N,N-dimethylpyridin-4-amine","N,N-dimethylpyridin-4-amine",7761,DTXSID0044369,CN(C)c1cc[n]cc1,"InChI=1S/C7H10N2/c1-9(2)7-3-5-8-6-4-7/h3-6H,1-2H3",VHYFNPMBLIVWCW-UHFFFAOYSA-N,?,,"HANSCH,C ET AL. (1995)",1.34
103204,1122-61-8,1122-61-8,[H]C1=NC([H])=C([H])C([N+](=O)[O-])=C1[H],4-NITROPYRIDINE,"Pyridine, 4-nitro-",4-Nitropyridine,7762,DTXSID2074453,[O-][N+](=O)c1cc[n]cc1,InChI=1S/C5H4N2O2/c8-7(9)5-1-3-6-4-2-5/h1-4H,FEXIEMAAKBNTFK-UHFFFAOYSA-N,?,,"HANSCH,C ET AL. (1995)",0.33
103206,1122-81-2,1122-81-2,[H]C1=NC([H])=C([H])C(C([H])([H])C([H])([H])C([H])([H])[H])=C1[H],4-PROPYLPYRIDINE,4-Propylpyridine,4-Propylpyridine,7764,DTXSID0061531,CCCc1cc[n]cc1,"InChI=1S/C8H11N/c1-2-3-8-4-6-9-7-5-8/h4-7H,2-3H2,1H3",JAWZAONCXMJLFT-UHFFFAOYSA-N,?,,"HANSCH,C ET AL. (1995)",2.1
103207,1123-54-2,1123-54-2,[H]C1=NC2=C(C(N([H])[H])=N1)N([H])N=N2,8-AZAADENINE,"1H-1,2,3-Triazolo[4,5-d]pyrimidin-7-amine",,7765,DTXSID0061537,Nc1[n]c[n]c2[n][n][nH]c21,"InChI=1S/C4H4N6/c5-3-2-4(7-1-6-3)9-10-8-2/h1H,(H3,5,6,7,8,9,10)",HRYKDUPGBWLLHO-UHFFFAOYSA-N,?,,"HANSCH,C ET AL. (1995)",-0.96
103208,1124-11-4,1124-11-4,[H]C([H])([H])C1=NC(C([H])([H])[H])=C(C([H])([H])[H])N=C1C([H])([H])[H],"PYRAZINE, TETRAMETHYL-",Tetramethylpyrazine,tetramethylpyrazine,7766,DTXSID6047070,Cc1[n]c(C)c(C)[n]c1C,InChI=1S/C8H12N2/c1-5-6(2)10-8(4)7(3)9-5/h1-4H3,FINHMKGKINIASC-UHFFFAOYSA-N,?,,"YAMAGAMI,C ET AL. (1991)",1.28
103210,1125-78-6,NOCAS_870851,[H]OC1=C([H])C([H])=C2C(=C1[H])C([H])([H])C([H])([H])C([H])([H])C2([H])[H],"2-NAPHTHALENOL, 5,6,7,8-TETRAHYDRO-",,,7768,DTXSID50870851,Oc1cc2CCCCc2cc1,"InChI=1S/C10H12O/c11-10-6-5-8-3-1-2-4-9(8)7-10/h5-7,11H,1-4H2",UMKXSOXZAXIOPJ-UHFFFAOYSA-N,?,,SANGSTER (1993),2.9
103211,1125-80-0,1125-80-0,[H]C1=NC(C([H])([H])[H])=C([H])C2=C([H])C([H])=C([H])C([H])=C12,ISOQUINOLONE-3-METHYL,"Isoquinoline, 3-methyl-",3-Methylisoquinoline,7769,DTXSID2075180,Cc1cc2ccccc2c[n]1,"InChI=1S/C10H9N/c1-8-6-9-4-2-3-5-10(9)7-11-8/h2-7H,1H3",FVVXWRGARUACNW-UHFFFAOYSA-N,?,,"HANSCH,C ET AL. (1995)",2.68
103212,1126-00-7,1126-00-7,[H]C1=NN(C2=C([H])C([H])=C([H])C([H])=C2[H])C([H])=C1[H],"1H-PYRAZOLE, 1-PHENYL-",1-Phenylpyrazole,1-Phenylpyrazole,7770,DTXSID30150108,c1cc[n]([n]1)-c1ccccc1,InChI=1S/C9H8N2/c1-2-5-9(6-3-1)11-8-4-7-10-11/h1-8H,WITMXBRCQWOZPX-UHFFFAOYSA-N,?,,"HANSCH,C ET AL. (1995)",2.2
103214,1126-46-1,1126-46-1,[H]C1=C([H])C(C(=O)OC([H])([H])[H])=C([H])C([H])=C1Cl,METHYL P-CHLOROBENZOATE,Methyl p-chlorobenzoate,methyl 4-chlorobenzoate,7772,DTXSID5022148,COC(=O)c1ccc(Cl)cc1,"InChI=1S/C8H7ClO2/c1-11-8(10)6-2-4-7(9)5-3-6/h2-5H,1H3",LXNFVVDCCWUUKC-UHFFFAOYSA-N,?,,"PAGOU,M & KOUTSELINIS,A (1993)",2.87
103215,1126-71-2,1126-71-2,[H]C1=C([H])C([H])=C(C([H])([H])C([H])([H])N(C([H])([H])[H])C([H])([H])[H])C([H])=C1[H],"N,N-DIMETHYL-N-B-PHENETHYLAMINE","N,N-Dimethylphenylethylamine","N,N-dimethyl-2-phenylethanamine",7773,DTXSID40150114,CN(C)CCc1ccccc1,"InChI=1S/C10H15N/c1-11(2)9-8-10-6-4-3-5-7-10/h3-7H,8-9H2,1-2H3",TXOFSCODFRHERQ-UHFFFAOYSA-N,?,,BIOBYTE STARLIST (2009),2.38
103216,1126-78-9,1126-78-9,[H]C1=C([H])C([H])=C(N([H])C([H])([H])C([H])([H])C([H])([H])C([H])([H])[H])C([H])=C1[H],N-BUTYLANILINE,N-Butylaniline,N-butylaniline,7774,DTXSID9044370,CCCCNc1ccccc1,"InChI=1S/C10H15N/c1-2-3-9-11-10-7-5-4-6-8-10/h4-8,11H,2-3,9H2,1H3",VSHTWPWTCXQLQN-UHFFFAOYSA-N,?,,"HANSCH,C ET AL. (1995)",3.58
103218,1128-05-8,1128-05-8,[H]C1=C(C(=O)C([H])([H])[H])C2=C([H])C([H])=C([H])C([H])=C2S1,3-ACETYL BENZOTHIOPHENE,3-Acetylbenzothiophene,1-(1-benzothiophen-3-yl)ethanone,7776,DTXSID2074457,CC(=O)c1c[s]c2ccccc12,"InChI=1S/C10H8OS/c1-7(11)9-6-12-10-5-3-2-4-8(9)10/h2-6H,1H3",ZTTZKDDWXHQKSY-UHFFFAOYSA-N,?,,"HANSCH,C ET AL. (1995)",2.78
103219,1128-78-5,1128-78-5,[H]C1=C([H])C([H])=C(C([H])([H])[H])C(OC(=O)N([H])C([H])([H])[H])=C1[H],N-METHYL-O-TOLYLCARBAMATE,"Carbamic acid, methyl-, 2-methylphenyl ester",(2-methylphenyl) N-methylcarbamate,7777,DTXSID70150182,Cc1ccccc1OC(=O)NC,"InChI=1S/C9H11NO2/c1-7-5-3-4-6-8(7)12-9(11)10-2/h3-6H,1-2H3,(H,10,11)",JDIMVGGWYBWUIS-UHFFFAOYSA-N,?,,"HANSCH,C ET AL. (1995)",1.46
103220,1129-26-6,1129-26-6,[H]C1=C([H])C(S(=O)(=O)N([H])[H])=C([H])C([H])=C1OC([H])([H])[H],P-METHOXYBENZENESULFONAMIDE,"Benzenesulfonamide, p-methoxy- (6CI,7CI,8CI)",4-Methoxybenzenesulfonamide,7778,DTXSID90150200,COc1ccc(cc1)S(N)(=O)=O,"InChI=1S/C7H9NO3S/c1-11-6-2-4-7(5-3-6)12(8,9)10/h2-5H,1H3,(H2,8,9,10)",MSFQEZBRFPAFEX-UHFFFAOYSA-N,?,,"HANSCH,C ET AL. (1995)",0.47
103222,1129-41-5,1129-41-5,[H]O/C(=N\C([H])([H])[H])OC1=C([H])C([H])=C([H])C(C([H])([H])[H])=C1[H],N-METHYL-M-TOLYLCARBAMATE,Metolcarb,3-methylphenyl methylcarbamate,7780,DTXSID8057938,Cc1cc(ccc1)OC(O)=NC,"InChI=1S/C9H11NO2/c1-7-4-3-5-8(6-7)12-9(11)10-2/h3-6H,1-2H3,(H,10,11)",VOEYXMAFNDNNED-UHFFFAOYSA-N,?,,"HANSCH,C ET AL. (1995)",1.7
103223,1129-48-2,1129-48-2,[H]C1=C([H])C(C([H])([H])[H])=C([H])C([H])=C1OC(=O)N([H])C([H])([H])[H],N-METHYL-P-TOLYLCARBAMATE,"Carbamic acid, methyl-, 4-methylphenyl ester",(4-methylphenyl) N-methylcarbamate,7781,DTXSID70150203,Cc1ccc(cc1)OC(=O)NC,"InChI=1S/C9H11NO2/c1-7-3-5-8(6-4-7)12-9(11)10-2/h3-6H,1-2H3,(H,10,11)",ZHXCDUWUCWUEPJ-UHFFFAOYSA-N,?,,"HANSCH,C ET AL. (1995)",1.66
103224,1129-50-6,1129-50-6,[H]C1=C([H])C([H])=C(N([H])C(=O)C([H])([H])C([H])([H])C([H])([H])[H])C([H])=C1[H],BUTYRANILIDE,"Butanamide, N-phenyl-",N-phenylbutanamide,7782,DTXSID9061544,CCCC(=O)Nc1ccccc1,"InChI=1S/C10H13NO/c1-2-6-10(12)11-9-7-4-3-5-8-9/h3-5,7-8H,2,6H2,1H3,(H,11,12)",UHANVDZCDNSILX-UHFFFAOYSA-N,?,,"HANSCH,C ET AL. (1995)",2.05
103226,1131-61-9,1131-61-9,[H]C1=C([H])C([H])=C(C2C([H])C([H])N(=O)C([H])C2[H])C([H])=C1[H],PYRIDINE-1-OXIDE-4-PHENYL,4-Phenylpyridine-1-oxide,1-oxido-4-phenylpyridin-1-ium,7784,DTXSID9061548,O=N1CCC(CC1)c1ccccc1,"InChI=1S/C11H14NO/c13-12-8-6-11(7-9-12)10-4-2-1-3-5-10/h1-5,11H,6-9H2",QFHGVXAIVBLZHD-UHFFFAOYSA-N,?,,BIOBYTE STARLIST (2009),0.93
103227,1131-64-2,1131-64-2,[H]/N=C(\N([H])[H])N1C([H])([H])C2=C(C([H])=C([H])C([H])=C2[H])C([H])([H])C1([H])[H],"2(1H)-ISOQUINOLINECARBOXIMIDAMIDE, 3,4-DIHYDRO-",Debrisoquin,"3,4-dihydroisoquinoline-2(1H)-carboximidamide",7785,DTXSID7022885,NC(=N)N1Cc2ccccc2CC1,"InChI=1S/C10H13N3/c11-10(12)13-6-5-8-3-1-2-4-9(8)7-13/h1-4H,5-7H2,(H3,11,12)",JWPGJSVJDAJRLW-UHFFFAOYSA-N,?,,SANGSTER (1994),0.75
103228,1132-18-9,1132-18-9,[H]C1=C([H])C(S(=O)(=O)N([H])[H])=C([H])C([H])=C1C([H])([H])C([H])([H])C([H])([H])[H],P-PROPYLBENZENESULFONAMIDE,4-propylbenzenesulfonamide,C9H13NO2S,7786,DTXSID70367415,CCCc1ccc(cc1)S(N)(=O)=O,"InChI=1S/C9H13NO2S/c1-2-3-8-4-6-9(7-5-8)13(10,11)12/h4-7H,2-3H2,1H3,(H2,10,11,12)",CICCMHNIYTXWRF-UHFFFAOYSA-N,?,,"HANSCH,C ET AL. (1995)",1.64
103230,1134-23-2,1134-23-2,[H]C([H])([H])C([H])([H])SC(=O)N(C([H])([H])C([H])([H])[H])C1([H])C([H])([H])C([H])([H])C([H])([H])C([H])([H])C1([H])[H],CYCLOATE,Cycloate,S-ethyl cyclohexyl(ethyl)carbamothioate,7788,DTXSID6032356,CCN(C1CCCCC1)C(=O)SCC,"InChI=1S/C11H21NOS/c1-3-12(11(13)14-4-2)10-8-6-5-7-9-10/h10H,3-9H2,1-2H3",DFCAFRGABIXSDS-UHFFFAOYSA-N,?,,"TOMLIN,C (2003)",3.88
103231,1134-47-0,1134-47-0,[H]OC(=O)C([H])([H])C([H])(C1=C([H])C([H])=C(Cl)C([H])=C1[H])C([H])([H])N([H])[H],"BENZENEPROPANOIC ACID, ?-(AMINOMETHYL)-4-CHLORO-",Baclofen,4-amino-3-(4-chlorophenyl)butanoic acid,7789,DTXSID5022641,NCC(CC(O)=O)c1ccc(Cl)cc1,"InChI=1S/C10H12ClNO2/c11-9-3-1-7(2-4-9)8(6-12)5-10(13)14/h1-4,8H,5-6,12H2,(H,13,14)",KPYSYYIEGFHWSV-UHFFFAOYSA-N,?,,POMONA (1987),-0.96
103232,1134-61-8,1134-61-8,[H]C([H])=C([H])C#CC1=C([H])C([H])=C(C2=C([H])C([H])=C([H])S2)S1,"2,2'-BITHIOPHENE, 5-(3-BUTEN-1-YNYL)-","5-(3-Buten-1-ynyl)-2,2'-bithiophene",2-but-3-en-1-ynyl-5-thiophen-2-ylthiophene,7790,DTXSID70150400,C=CC#Cc1ccc([s]1)-c1ccc[s]1,"InChI=1S/C12H8S2/c1-2-3-5-10-7-8-12(14-10)11-6-4-9-13-11/h2,4,6-9H,1H2",GWAIEOFEEWQORO-UHFFFAOYSA-N,?,,"MCLACHLAN,D ET AL. (1986)",5.15
103234,1135-00-8,1135-00-8,[H]C1=C([H])C(S(=O)(=O)N([H])[H])=C([H])C([H])=C1C([H])([H])C([H])([H])C([H])([H])C([H])([H])[H],P-BUTYLBENZENESULFONAMIDE,4-butylbenzene-1-sulfonamide,C10H15NO2S,7792,DTXSID10366043,CCCCc1ccc(cc1)S(N)(=O)=O,"InChI=1S/C10H15NO2S/c1-2-3-4-9-5-7-10(8-6-9)14(11,12)13/h5-8H,2-4H2,1H3,(H2,11,12,13)",IWEMSJAOIKQBBZ-UHFFFAOYSA-N,?,,"HANSCH,C ET AL. (1995)",2.45
103235,1135-24-6,1135-24-6,[H]OC(=O)/C([H])=C(\[H])C1=C([H])C([H])=C(O[H])C(OC([H])([H])[H])=C1[H],"CINNAMIC ACID, 3-METHOXY-4-HYDROXY",Ferulic acid,3-(4-hydroxy-3-methoxyphenyl)prop-2-enoic acid,7793,DTXSID5040673,COc1cc(C=CC(O)=O)ccc1O,"InChI=1S/C10H10O4/c1-14-9-6-7(2-4-8(9)11)3-5-10(12)13/h2-6,11H,1H3,(H,12,13)/b5-3+",KSEBMYQBYZTDHS-HWKANZROSA-N,?,,"HANSCH,C ET AL. (1995)",1.51
103236,1135-43-9,1135-43-9,[H]C1=C([H])C(C(=O)C([H])([H])[H])=C([H])C([H])=C1OC(=O)N([H])C([H])([H])[H],N-METHYL-4-ACETYLPHENYLCARBAMATE,4-acetylphenyl methylcarbamate,C10H11NO3,7794,DTXSID90280713,CC(=O)c1ccc(cc1)OC(=O)NC,"InChI=1S/C10H11NO3/c1-7(12)8-3-5-9(6-4-8)14-10(13)11-2/h3-6H,1-2H3,(H,11,13)",RLEQDIMSXBUMLQ-UHFFFAOYSA-N,?,,"HANSCH,C ET AL. (1995)",1.01
103239,1137-42-4,1137-42-4,[H]OC1=C([H])C([H])=C(C(=O)C2=C([H])C([H])=C([H])C([H])=C2[H])C([H])=C1[H],P-HYDROXYBENZOPHENONE,4-Hydroxybenzophenone,(4-hydroxyphenyl)(phenyl)methanone,7796,DTXSID5036684,Oc1ccc(cc1)C(=O)c1ccccc1,"InChI=1S/C13H10O2/c14-12-8-6-11(7-9-12)13(15)10-4-2-1-3-5-10/h1-9,14H",NPFYZDNDJHZQKY-UHFFFAOYSA-N,?,,"HANSCH,C ET AL. (1995)",3.07
103240,1137-96-8,1137-96-8,[H]C1=C([H])C([H])=C(/C([H])=N(=O)/C2=C([H])C([H])=C([H])C([H])=C2[H])C([H])=C1[H],ALPHA-PHENYL-N-PHENYLNITRONE,,,7797,DTXSID30877126,O=N(=Cc1ccccc1)c1ccccc1,InChI=1S/C13H11NO/c15-14(13-9-5-2-6-10-13)11-12-7-3-1-4-8-12/h1-11H/b14-11-,ZEAUJQWDPKRESH-KAMYIIQDSA-N,?,,"KIRCHNER,JJ ET AL. (1985)",1.88
103241,1138-52-9,1138-52-9,[H]OC1=C([H])C(C(C([H])([H])[H])(C([H])([H])[H])C([H])([H])[H])=C([H])C(C(C([H])([H])[H])(C([H])([H])[H])C([H])([H])[H])=C1[H],"3,5-DI-T-BUTYLPHENOL","3,5-Di-tert-butylphenol","3,5-ditert-butylphenol",7798,DTXSID3061558,CC(C)(C)c1cc(O)cc(c1)C(C)(C)C,"InChI=1S/C14H22O/c1-13(2,3)10-7-11(14(4,5)6)9-12(15)8-10/h7-9,15H,1-6H3",ZDWSNKPLZUXBPE-UHFFFAOYSA-N,?,,BIOBYTE STARLIST (2009),4.64
103243,1138-60-9,1138-60-9,[H]OC1=C([H])C(C(=O)OC([H])(C([H])([H])[H])C([H])([H])[H])=C([H])C(O[H])=C1O[H],ISOPROPYL GALLATE,"Isopropyl 3,4,5-trihydroxybenzoate","propan-2-yl 3,4,5-trihydroxybenzoate",7800,DTXSID00150554,CC(C)OC(=O)c1cc(O)c(O)c(O)c1,"InChI=1S/C10H12O5/c1-5(2)15-10(14)6-3-7(11)9(13)8(12)4-6/h3-5,11-13H,1-2H3",TXGSOSAONMOPDL-UHFFFAOYSA-N,?,,"HANSCH,C ET AL. (1995)",1.54
103244,1141-88-4,1141-88-4,[H]C1=C([H])C([H])=C(N([H])[H])C(SSC2=C([H])C([H])=C([H])C([H])=C2N([H])[H])=C1[H],"BENZENAMINE, 2,2'-DITHIOBIS-","Benzenamine, 2,2'-dithiobis-",2-(2-aminophenyl)disulfanylaniline,7801,DTXSID2061561,Nc1ccccc1SSc1ccccc1N,"InChI=1S/C12H12N2S2/c13-9-5-1-3-7-11(9)15-16-12-8-4-2-6-10(12)14/h1-8H,13-14H2",YYYOQURZQWIILK-UHFFFAOYSA-N,?,,"HANSCH,C ET AL. (1995)",3.05
103245,1142-70-7,NOCAS_871829,[H]C([H])=C(Br)C([H])([H])C1(C([H])(C([H])([H])[H])C([H])([H])C([H])([H])[H])C(=O)N([H])C(=O)N([H])C1=O,"BARBITURIC ACID,5-IPR-5(2BR2ALLYL)",,,7802,DTXSID10871829,CCC(C)C1(CC(=C)Br)C(=O)NC(=O)NC1=O,"InChI=1S/C11H15BrN2O3/c1-4-6(2)11(5-7(3)12)8(15)13-10(17)14-9(11)16/h6H,3-5H2,1-2H3,(H2,13,14,15,16,17)",FWZMBTIUIQUJFF-UHFFFAOYSA-N,?,,"YIH,TD & VAN ROSSUM,JM (1977)",2.2
103247,1145-46-6,1145-46-6,[H]C1=C([H])C(S(=O)(=O)N([H])[H])=C([H])C([H])=C1OC([H])([H])C([H])([H])C([H])([H])C([H])([H])C([H])([H])C([H])([H])[H],"BENZENESULFONAMIDE, 4-(HEXYLOXY)-",PUBCHEM_23274642,C12H19NO3S,7804,DTXSID50632299,CCCCCCOc1ccc(cc1)S(N)(=O)=O,"InChI=1S/C12H19NO3S/c1-2-3-4-5-10-16-11-6-8-12(9-7-11)17(13,14)15/h6-9H,2-5,10H2,1H3,(H2,13,14,15)",LKDKSKQJCGTOCA-UHFFFAOYSA-N,?,,"HANSCH,C ET AL. (1995)",2.93