ChemID,source_casrn,CAS,SMILES,NAME,preferred_name,iupac,MPID,dsstox_substance_id,Canonical_QSARr,InChI_Code_QSARr,InChI Key_QSARr,Salt_Solvent,Salt_Solvent_ID,Kow Reference,LogP
100778,95-76-1,95-76-1,[H]C1=C(Cl)C(Cl)=C([H])C(N([H])[H])=C1[H],"3,4-DICHLOROANILINE","3,4-Dichloroaniline","3,4-dichloroaniline",5424,DTXSID7021815,Nc1cc(Cl)c(Cl)cc1,"InChI=1S/C6H5Cl2N/c7-5-2-1-4(9)3-6(5)8/h1-3H,9H2",SDYWXFYBZPNOFX-UHFFFAOYSA-N,?,,"HANSCH,C ET AL. (1995)",2.69
100779,95-77-2,95-77-2,[H]OC1=C([H])C(Cl)=C(Cl)C([H])=C1[H],"3,4-DICHLOROPHENOL","3,4-Dichlorophenol","3,4-dichlorophenol",5425,DTXSID7025005,Oc1cc(Cl)c(Cl)cc1,"InChI=1S/C6H4Cl2O/c7-5-2-1-4(9)3-6(5)8/h1-3,9H",WDNBURPWRNALGP-UHFFFAOYSA-N,?,,"HANSCH,C ET AL. (1995)",3.33
100781,95-80-7,95-80-7,[H]C1=C(N([H])[H])C([H])=C(N([H])[H])C(C([H])([H])[H])=C1[H],"2,4-TOLUENEDIAMINE","2,4-Diaminotoluene","4-methylbenzene-1,3-diamine",5427,DTXSID4020402,Cc1ccc(N)cc1N,"InChI=1S/C7H10N2/c1-5-2-3-6(8)4-7(5)9/h2-4H,8-9H2,1H3",VOZKAJLKRJDJLL-UHFFFAOYSA-N,?,,"DEBNATH,AK ET AL. (1992)",0.14
100782,95-82-9,95-82-9,[H]C1=C(Cl)C([H])=C(N([H])[H])C(Cl)=C1[H],"2,5-DICHLOROANILINE","2,5-Dichloroaniline","2,5-dichloroaniline",5428,DTXSID6024967,Nc1cc(Cl)ccc1Cl,"InChI=1S/C6H5Cl2N/c7-4-1-2-5(8)6(9)3-4/h1-3H,9H2",AVYGCQXNNJPXSS-UHFFFAOYSA-N,?,,SANGSTER (1994),2.75
100783,95-83-0,95-83-0,[H]C1=C(Cl)C([H])=C(N([H])[H])C(N([H])[H])=C1[H],"4-CHLORO-1,2-BENZENEDIAMINE","4-Chloro-1,2-diaminobenzene","4-chlorobenzene-1,2-diamine",5429,DTXSID5020283,Nc1cc(Cl)ccc1N,"InChI=1S/C6H7ClN2/c7-4-1-2-5(8)6(9)3-4/h1-3H,8-9H2",BXIXXXYDDJVHDL-UHFFFAOYSA-N,?,,"HANSCH,C ET AL. (1995)",1.28
100785,95-85-2,95-85-2,[H]OC1=C(N([H])[H])C([H])=C(Cl)C([H])=C1[H],"PHENOL, 2-AMINO-4-CHLORO-",2-Amino-4-chlorophenol,2-amino-4-chlorophenol,5431,DTXSID5024473,Nc1cc(Cl)ccc1O,"InChI=1S/C6H6ClNO/c7-4-1-2-6(9)5(8)3-4/h1-3,9H,8H2",SWFNPENEBHAHEB-UHFFFAOYSA-N,?,,"DEBNATH,AK ET AL. (1992)",1.81
100786,95-87-4,95-87-4,[H]OC1=C([H])C(C([H])([H])[H])=C([H])C([H])=C1C([H])([H])[H],"2,5-DIMETHYLPHENOL","2,5-Dimethylphenol","2,5-dimethylphenol",5432,DTXSID6025145,Cc1cc(O)c(C)cc1,"InChI=1S/C8H10O/c1-6-3-4-7(2)8(9)5-6/h3-5,9H,1-2H3",NKTOLZVEWDHZMU-UHFFFAOYSA-N,?,,"HANSCH,C ET AL. (1995)",2.33
100787,95-88-5,95-88-5,[H]OC1=C([H])C([H])=C(Cl)C(O[H])=C1[H],4-CHLORORESORCINOL,4-Chlororesorcinol,"4-chlorobenzene-1,3-diol",5433,DTXSID8052643,Oc1cc(O)c(Cl)cc1,"InChI=1S/C6H5ClO2/c7-5-2-1-4(8)3-6(5)9/h1-3,8-9H",JQVAPEJNIZULEK-UHFFFAOYSA-N,?,,"HANSCH,C ET AL. (1995)",1.8
100789,95-92-1,95-92-1,[H]C([H])([H])C([H])([H])OC(=O)C(=O)OC([H])([H])C([H])([H])[H],ETHYL OXALATE,Diethyl oxalate,diethyl ethanedioate,5435,DTXSID2044472,CCOC(=O)C(=O)OCC,"InChI=1S/C6H10O4/c1-3-9-5(7)6(8)10-4-2/h3-4H2,1-2H3",WYACBZDAHNBPPB-UHFFFAOYSA-N,?,,"HANSCH,C ET AL. (1995)",0.56
100790,95-93-2,95-93-2,[H]C1=C(C([H])([H])[H])C(C([H])([H])[H])=C([H])C(C([H])([H])[H])=C1C([H])([H])[H],"1,2,4,5-TETRAMETHYLBENZENE","1,2,4,5-Tetramethylbenzene","1,2,4,5-tetramethylbenzene",5436,DTXSID1029124,Cc1cc(C)c(C)cc1C,"InChI=1S/C10H14/c1-7-5-9(3)10(4)6-8(7)2/h5-6H,1-4H3",SQNZJJAZBFDUTD-UHFFFAOYSA-N,?,,"HANSCH,C ET AL. (1995)",4.0
100791,95-94-3,95-94-3,[H]C1=C(Cl)C(Cl)=C([H])C(Cl)=C1Cl,"1,2,4,5-TETRACHLOROBENZENE","1,2,4,5-Tetrachlorobenzene","1,2,4,5-tetrachlorobenzene",5437,DTXSID7024320,Clc1cc(Cl)c(Cl)cc1Cl,InChI=1S/C6H2Cl4/c7-3-1-4(8)6(10)2-5(3)9/h1-2H,JHBKHLUZVFWLAG-UHFFFAOYSA-N,?,,"HANSCH,C ET AL. (1995)",4.64
100793,96-09-3,96-09-3,[H]C1=C([H])C([H])=C(C2([H])OC2([H])[H])C([H])=C1[H],STYRENE OXIDE,Styrene oxide,2-phenyloxirane,5439,DTXSID2021286,C1OC1c1ccccc1,"InChI=1S/C8H8O/c1-2-4-7(5-3-1)8-6-9-8/h1-5,8H,6H2",AWMVMTVKBNGEAK-UHFFFAOYSA-N,?,,"HANSCH,C ET AL. (1995)",1.61
100794,96-12-8,96-12-8,[H]C([H])(Cl)C([H])(Br)C([H])([H])Br,"1,2-DIBROMO-3-CHLOROPROPANE","1,2-Dibromo-3-chloropropane","1,2-dibromo-3-chloropropane",5440,DTXSID3020413,ClCC(Br)CBr,"InChI=1S/C3H5Br2Cl/c4-1-3(5)2-6/h3H,1-2H2",WBEJYOJJBDISQU-UHFFFAOYSA-N,?,,CHEMICALS INSPECTION AND TESTING INSTITU (1992),2.96
100795,96-14-0,96-14-0,[H]C([H])([H])C([H])([H])C([H])(C([H])([H])[H])C([H])([H])C([H])([H])[H],3-METHYLPENTANE,3-Methylpentane,3-methylpentane,5441,DTXSID8052647,CC(CC)CC,"InChI=1S/C6H14/c1-4-6(3)5-2/h6H,4-5H2,1-3H3",PFEOZHBOMNWTJB-UHFFFAOYSA-N,?,,SANGSTER (1993),3.6
100797,96-22-0,96-22-0,[H]C([H])([H])C([H])([H])C(=O)C([H])([H])C([H])([H])[H],3-PENTANONE,3-Pentanone,pentan-3-one,5443,DTXSID6021820,CCC(=O)CC,"InChI=1S/C5H10O/c1-3-5(6)4-2/h3-4H2,1-2H3",FDPIMTJIUBPUKL-UHFFFAOYSA-N,?,,"HANSCH,C ET AL. (1995)",0.99
100798,96-29-7,96-29-7,[H]C([H])([H])C([H])([H])C([H])(N=O)C([H])([H])[H],2-BUTANONE OXIME,2-Butanone oxime,N-hydroxybutan-2-imine,5444,DTXSID1021821,CCC(C)N=O,"InChI=1S/C4H9NO/c1-3-4(2)5-6/h4H,3H2,1-2H3",GRFXXWWBAWFSRF-UHFFFAOYSA-N,?,,CHEMICALS INSPECTION AND TESTING INSTITU (1992),0.63
100799,96-31-1,96-31-1,[H]N(C(=O)N([H])C([H])([H])[H])C([H])([H])[H],"DIMETHYLUREA, SYM","N,N'-Dimethylurea","1,3-dimethylurea",5445,DTXSID5025156,CNC(=O)NC,"InChI=1S/C3H8N2O/c1-4-3(6)5-2/h1-2H3,(H2,4,5,6)",MGJKQDOBUOMPEZ-UHFFFAOYSA-N,?,,"HANSCH,C ET AL. (1995)",-0.49
100801,96-37-7,96-37-7,[H]C([H])([H])C1([H])C([H])([H])C([H])([H])C([H])([H])C1([H])[H],METHYLCYCLOPENTANE,Methylcyclopentane,methylcyclopentane,5447,DTXSID3025590,CC1CCCC1,"InChI=1S/C6H12/c1-6-4-2-3-5-6/h6H,2-5H2,1H3",GDOPTJXRTPNYNR-UHFFFAOYSA-N,?,,"HANSCH,C ET AL. (1995)",3.37
100802,96-43-5,96-43-5,[H]C1=C([H])C([H])=C(Cl)S1,2-CHLOROTHIOPHENE,"Thiophene, 2-chloro-",2-Chlorothiophene,5448,DTXSID8059132,Clc1ccc[s]1,InChI=1S/C4H3ClS/c5-4-2-1-3-6-4/h1-3H,GSFNQBFZFXUTBN-UHFFFAOYSA-N,?,,"HANSCH,C ET AL. (1995)",2.54
100803,96-45-7,96-45-7,[H]N1C(=S)N([H])C([H])([H])C1([H])[H],ETHYLENETHIOUREA,Ethylene thiourea,imidazolidine-2-thione,5449,DTXSID5020601,S=C1NCCN1,"InChI=1S/C3H6N2S/c6-3-4-1-2-5-3/h1-2H2,(H2,4,5,6)",PDQAZBWRQCGBEV-UHFFFAOYSA-N,?,,"GOVERS,H ET AL. (1986)",-0.66
100805,96-50-4,96-50-4,[H]C1=C([H])SC(N([H])[H])=N1,2-AMINOTHIAZOLE,2-Aminothiazole,"1,3-thiazol-2-amine",5451,DTXSID5024508,Nc1[n]cc[s]1,"InChI=1S/C3H4N2S/c4-3-5-1-2-6-3/h1-2H,(H2,4,5)",RAIPHJJURHTUIC-UHFFFAOYSA-N,?,,"HANSCH,C ET AL. (1995)",0.38
100806,96-54-8,96-54-8,[H]C1=C([H])N(C([H])([H])[H])C([H])=C1[H],N-METHYLPYRROLE,1-Methylpyrrole,1-methyl-1H-pyrrole,5452,DTXSID3052648,C[n]1cccc1,"InChI=1S/C5H7N/c1-6-4-2-3-5-6/h2-5H,1H3",OXHNLMTVIGZXSG-UHFFFAOYSA-N,?,,"HANSCH,C ET AL. (1995)",1.21
100807,96-64-0,96-64-0,[H]C([H])([H])C([H])(OP(=O)(F)C([H])([H])[H])C(C([H])([H])[H])(C([H])([H])[H])C([H])([H])[H],SOMAN,Pinacolyl methylphosphonofluoridate,"3,3-dimethylbutan-2-yl methylphosphonofluoridate",5453,DTXSID2031906,CC(OP(C)(=O)F)C(C)(C)C,"InChI=1S/C7H16FO2P/c1-6(7(2,3)4)10-11(5,8)9/h6H,1-5H3",GRXKLBBBQUKJJZ-UHFFFAOYSA-N,?,,"BENSCHOP,HP & WESSELMAN,HC (1989)",1.78
100809,96-88-8,96-88-8,[H]C1=C([H])C(C([H])([H])[H])=C(N([H])C(=O)C2([H])N(C([H])([H])[H])C([H])([H])C([H])([H])C([H])([H])C2([H])[H])C(C([H])([H])[H])=C1[H],"2-PIPERIDINECARBOXAMIDE, N-(2,6-DIMETHYLPHENYL)-",Mepivacaine,"N-(2,6-dimethylphenyl)-1-methylpiperidine-2-carboxamide",5455,DTXSID9023259,CN1CCCCC1C(=O)Nc1c(C)cccc1C,"InChI=1S/C15H22N2O/c1-11-7-6-8-12(2)14(11)16-15(18)13-9-4-5-10-17(13)3/h6-8,13H,4-5,9-10H2,1-3H3,(H,16,18)",INWLQCZOYSRPNW-UHFFFAOYSA-N,?,,"HANSCH,C ET AL. (1995)",1.95
100810,96-91-3,96-91-3,[H]OC1=C([N+](=O)[O-])C([H])=C([N+](=O)[O-])C([H])=C1N([H])[H],"2-AMINO-4,6-DINITROPHENOL","2-Amino-4,6-dinitrophenol","2-amino-4,6-dinitrophenol",5456,DTXSID5024479,Nc1cc(cc(c1O)[N+]([O-])=O)[N+]([O-])=O,"InChI=1S/C6H5N3O5/c7-4-1-3(8(11)12)2-5(6(4)10)9(13)14/h1-2,10H,7H2",QXYMVUZOGFVPGH-UHFFFAOYSA-N,?,,"HANSCH,C ET AL. (1995)",0.93
100811,96-96-8,96-96-8,[H]C1=C([H])C(N([H])[H])=C([N+](=O)[O-])C([H])=C1OC([H])([H])[H],"BENZENAMINE, 4-METHOXY-2-NITRO-",4-Methoxy-2-nitroaniline,C7H8N2O3,5457,DTXSID3044750,COc1cc(c(N)cc1)[N+]([O-])=O,"InChI=1S/C7H8N2O3/c1-12-5-2-3-6(8)7(4-5)9(10)11/h2-4H,8H2,1H3",QFMJFXFXQAFGBO-UHFFFAOYSA-N,?,,CHEMICALS INSPECTION AND TESTING INSTITU (1992),1.94
100813,96-98-0,96-98-0,[H]OC(=O)C1=C([H])C([H])=C(C([H])([H])[H])C([N+](=O)[O-])=C1[H],"BENZOIC ACID,4-METHYL-3-NITRO",4-Methyl-3-nitrobenzoic acid,4-methyl-3-nitrobenzoic acid,5459,DTXSID6025642,Cc1ccc(cc1[N+]([O-])=O)C(O)=O,"InChI=1S/C8H7NO4/c1-5-2-3-6(8(10)11)4-7(5)9(12)13/h2-4H,1H3,(H,10,11)",BBEWSMNRCUXQRF-UHFFFAOYSA-N,?,,BIOBYTE STARLIST (2009),2.35
100814,97-00-7,97-00-7,[H]C1=C(Cl)C([N+](=O)[O-])=C([H])C([N+](=O)[O-])=C1[H],"2,4-DINITROCHLOROBENZENE","1-Chloro-2,4-dinitrobenzene","1-chloro-2,4-dinitrobenzene",5460,DTXSID6020278,[O-][N+](=O)c1cc(ccc1Cl)[N+]([O-])=O,InChI=1S/C6H3ClN2O4/c7-5-2-1-4(8(10)11)3-6(5)9(12)13/h1-3H,VYZAHLCBVHPDDF-UHFFFAOYSA-N,?,,"DEBNATH,AK ET AL. (1991)",2.17
100815,97-09-6,97-09-6,[H]C1=C([H])C(S(=O)(=O)N([H])[H])=C([H])C([N+](=O)[O-])=C1Cl,"BENZENESULFONAMIDE, 4-CHLORO-3-NITRO-",4-Chloro-3-nitrobenzenesulphonamide,4-chloro-3-nitrobenzenesulfonamide,5461,DTXSID8052649,NS(=O)(=O)c1cc(c(Cl)cc1)[N+]([O-])=O,"InChI=1S/C6H5ClN2O4S/c7-5-2-1-4(14(8,12)13)3-6(5)9(10)11/h1-3H,(H2,8,12,13)",SPZGXONNVLTQDE-UHFFFAOYSA-N,?,,SANGSTER (1994),0.66
100817,97-23-4,97-23-4,[H]OC1=C(C([H])([H])C2=C(O[H])C([H])=C([H])C(Cl)=C2[H])C([H])=C(Cl)C([H])=C1[H],"PHENOL,2,2'-METHYLENEBIS 4-CHLORO-",Dichlorophen,"2,2'-methanediylbis(4-chlorophenol)",5463,DTXSID6021824,Oc1ccc(Cl)cc1Cc1cc(Cl)ccc1O,"InChI=1S/C13H10Cl2O2/c14-10-1-3-12(16)8(6-10)5-9-7-11(15)2-4-13(9)17/h1-4,6-7,16-17H,5H2",MDNWOSOZYLHTCG-UHFFFAOYSA-N,?,,"HANSCH,C ET AL. (1995)",4.26
100818,97-31-4,NOCAS_861701,[H]OC1=C([H])C([H])=C(C([H])(O[H])C([H])([H])N([H])[H])C([H])=C1OC([H])([H])[H],NORMETANEPHRINE,,,5464,DTXSID70861701,COc1cc(ccc1O)C(O)CN,"InChI=1S/C9H13NO3/c1-13-9-4-6(8(12)5-10)2-3-7(9)11/h2-4,8,11-12H,5,10H2,1H3",YNYAYWLBAHXHLL-UHFFFAOYSA-N,?,,"HANSCH,C ET AL. (1995)",-1.05
100819,97-53-0,97-53-0,[H]OC1=C([H])C([H])=C(C([H])([H])C([H])=C([H])[H])C([H])=C1OC([H])([H])[H],EUGENOL,Eugenol,2-methoxy-4-(prop-2-en-1-yl)phenol,5465,DTXSID9020617,COc1cc(CC=C)ccc1O,"InChI=1S/C10H12O2/c1-3-4-8-5-6-9(11)10(7-8)12-2/h3,5-7,11H,1,4H2,2H3",RRAFCDWBNXTKKO-UHFFFAOYSA-N,?,,SANGSTER (1993),2.27
100821,97-61-0,97-61-0,[H]OC(=O)C([H])(C([H])([H])[H])C([H])([H])C([H])([H])C([H])([H])[H],"PENTANOIC ACID, 2-METHYL-",2-Methylpentanoic acid,2-methylpentanoic acid,5467,DTXSID9021633,CCCC(C)C(O)=O,"InChI=1S/C6H12O2/c1-3-4-5(2)6(7)8/h5H,3-4H2,1-2H3,(H,7,8)",OVBFMEVBMNZIBR-UHFFFAOYSA-N,?,,"CATZ,P & FRIEND,D (1989)",1.8
100822,97-63-2,97-63-2,[H]C([H])=C(C(=O)OC([H])([H])C([H])([H])[H])C([H])([H])[H],ETHYL METHACRYLATE,Ethyl methacrylate,ethyl 2-methylprop-2-enoate,5468,DTXSID1025308,CC(=C)C(=O)OCC,"InChI=1S/C6H10O2/c1-4-8-6(7)5(2)3/h2,4H2,1,3H3",SUPCQIBBMFXVTL-UHFFFAOYSA-N,?,,"HANSCH,C ET AL. (1995)",1.94
100823,97-77-8,97-77-8,[H]C([H])([H])C([H])([H])N(C(=S)SSC(=S)N(C([H])([H])C([H])([H])[H])C([H])([H])C([H])([H])[H])C([H])([H])C([H])([H])[H],DISULFIRAM,Disulfiram,"1,1',1'',1'''-[disulfanediylbis(carbonothioylnitrilo)]tetraethane",5469,DTXSID1021322,CCN(CC)C(=S)SSC(=S)N(CC)CC,"InChI=1S/C10H20N2S4/c1-5-11(6-2)9(13)15-16-10(14)12(7-3)8-4/h5-8H2,1-4H3",AUZONCFQVSMFAP-UHFFFAOYSA-N,?,,"HANSCH,C ET AL. (1995)",3.88
100825,97-88-1,97-88-1,[H]C([H])=C(C(=O)OC([H])([H])C([H])([H])C([H])([H])C([H])([H])[H])C([H])([H])[H],"METHACRYLIC ACID, N-BUTYL ESTER",Butyl methacrylate,butyl 2-methylprop-2-enoate,5471,DTXSID4024696,CC(=C)C(=O)OCCCC,"InChI=1S/C8H14O2/c1-4-5-6-10-8(9)7(2)3/h2,4-6H2,1,3H3",SOGAXMICEFXMKE-UHFFFAOYSA-N,?,,"HANSCH,C ET AL. (1995)",2.88
100826,98-00-0,98-00-0,[H]OC([H])([H])C1=C([H])C([H])=C([H])O1,2-HYDROXYMETHYLFURAN,Furfuryl alcohol,furan-2-ylmethanol,5472,DTXSID2025347,OCc1ccco1,"InChI=1S/C5H6O2/c6-4-5-2-1-3-7-5/h1-3,6H,4H2",XPFVYQJUAUNWIW-UHFFFAOYSA-N,?,,"HANSCH,C ET AL. (1995)",0.28
100827,98-01-1,98-01-1,[H]C(=O)C1=C([H])C([H])=C([H])O1,FUFURAL,Furfural,furan-2-carbaldehyde,5473,DTXSID1020647,O=Cc1ccco1,InChI=1S/C5H4O2/c6-4-5-2-1-3-7-5/h1-4H,HYBBIBNJHNGZAN-UHFFFAOYSA-N,?,,"HANSCH,C ET AL. (1995)",0.41
100829,98-04-4,98-04-4,[H]C1=C([H])C([H])=C([N+](C([H])([H])[H])(C([H])([H])[H])C([H])([H])[H])C([H])=C1[H],PHENYL TRIMETHYL AMMONIUM IODIDE,Phenyltrimethylammonium iodide,"N,N,N-trimethylanilinium iodide",5475,DTXSID1021825,C[N+](C)(C)c1ccccc1,"InChI=1S/C9H14N/c1-10(2,3)9-7-5-4-6-8-9/h4-8H,1-3H3/q+1",ZNEOHLHCKGUAEB-UHFFFAOYSA-N,[I-],4,"HANSCH,C ET AL. (1995)",-2.74
100830,98-05-5,98-05-5,[H]O[As](=O)(O[H])C1=C([H])C([H])=C([H])C([H])=C1[H],Phenylarsonic acid,Benzenearsonic acid,PHENYLARSONIC ACID,5476,DTXSID6059158,O[As](O)(=O)c1ccccc1,"InChI=1S/C6H7AsO3/c8-7(9,10)6-4-2-1-3-5-6/h1-5H,(H2,8,9,10)",LVKZSFMYNWRPJX-UHFFFAOYSA-N,?,,"HANSCH,C ET AL. (1995)",0.06
100831,98-06-6,98-06-6,[H]C1=C([H])C([H])=C(C(C([H])([H])[H])(C([H])([H])[H])C([H])([H])[H])C([H])=C1[H],T-BUTYLBENZENE,tert-Butylbenzene,tert-butylbenzene,5477,DTXSID3047138,CC(C)(C)c1ccccc1,"InChI=1S/C10H14/c1-10(2,3)9-7-5-4-6-8-9/h4-8H,1-3H3",YTZKOQUCBOVLHL-UHFFFAOYSA-N,?,,"HANSCH,C ET AL. (1995)",4.11
100833,98-10-2,98-10-2,[H]C1=C([H])C([H])=C(S(=O)(=O)N([H])[H])C([H])=C1[H],BENZENESULFONAMIDE,Benzenesulfonamide,Benzenesulfonamide,5479,DTXSID1059159,NS(=O)(=O)c1ccccc1,"InChI=1S/C6H7NO2S/c7-10(8,9)6-4-2-1-3-5-6/h1-5H,(H2,7,8,9)",KHBQMWCZKVMBLN-UHFFFAOYSA-N,?,,"HANSCH,C ET AL. (1995)",0.31
100834,98-16-8,98-16-8,[H]C1=C([H])C(C(F)(F)F)=C([H])C(N([H])[H])=C1[H],3-TRIFLUOROMETHYLANILINE,3-(Trifluoromethyl)aniline,3-(trifluoromethyl)aniline,5480,DTXSID9024512,Nc1cc(ccc1)C(F)(F)F,"InChI=1S/C7H6F3N/c8-7(9,10)5-2-1-3-6(11)4-5/h1-4H,11H2",VIUDTWATMPPKEL-UHFFFAOYSA-N,?,,"DEBNATH,AK ET AL. (1992)",2.29
100835,98-17-9,98-17-9,[H]OC1=C([H])C(C(F)(F)F)=C([H])C([H])=C1[H],M-TRIFLUOROMETHYLPHENOL,3-(Trifluoromethyl)phenol,3-(trifluoromethyl)phenol,5481,DTXSID7052658,Oc1cc(ccc1)C(F)(F)F,"InChI=1S/C7H5F3O/c8-7(9,10)5-2-1-3-6(11)4-5/h1-4,11H",UGEJOEBBMPOJMT-UHFFFAOYSA-N,?,,"HANSCH,C ET AL. (1995)",2.95
100837,98-46-4,98-46-4,[H]C1=C([H])C(C(F)(F)F)=C([H])C([N+](=O)[O-])=C1[H],M-TRIFLUOROMETHYLNITROBENZENE,1-Nitro-3-(trifluoromethyl)benzene,1-nitro-3-(trifluoromethyl)benzene,5483,DTXSID9025794,[O-][N+](=O)c1cc(ccc1)C(F)(F)F,"InChI=1S/C7H4F3NO2/c8-7(9,10)5-2-1-3-6(4-5)11(12)13/h1-4H",WHNAMGUAXHGCHH-UHFFFAOYSA-N,?,,"HANSCH,C ET AL. (1995)",2.62
100838,98-51-1,98-51-1,[H]C1=C([H])C(C(C([H])([H])[H])(C([H])([H])[H])C([H])([H])[H])=C([H])C([H])=C1C([H])([H])[H],P-(T-BUTYL)TOLUENE,4-tert-Butyltoluene,1-tert-butyl-4-methylbenzene,5484,DTXSID1024704,Cc1ccc(cc1)C(C)(C)C,"InChI=1S/C11H16/c1-9-5-7-10(8-6-9)11(2,3)4/h5-8H,1-4H3",QCWXDVFBZVHKLV-UHFFFAOYSA-N,?,,CHEMICALS INSPECTION AND TESTING INSTITU (1992),5.17
100839,98-52-2,98-52-2,[H]OC1([H])C([H])([H])C([H])([H])C([H])(C(C([H])([H])[H])(C([H])([H])[H])C([H])([H])[H])C([H])([H])C1([H])[H],"Cyclohexanol, 4-(1,1-dimethylethyl)-",4-tert-Butylcyclohexanol,4-tert-butylcyclohexanol,5485,DTXSID5026623,CC(C)(C)C1CCC(O)CC1,"InChI=1S/C10H20O/c1-10(2,3)8-4-6-9(11)7-5-8/h8-9,11H,4-7H2,1-3H3",CCOQPGVQAWPUPE-UHFFFAOYSA-N,?,,US EPA (2004),3.23
100841,98-55-5|10482-56-1,98-55-5|10482-56-1,[H]OC(C([H])([H])[H])(C([H])([H])[H])C1([H])C([H])([H])C([H])=C(C([H])([H])[H])C([H])([H])C1([H])[H],"ALPHA-TERPINEOL, 2-(4-METHYL-3-CYLOHEXENYL)ISOPROPANOL",alpha-Terpineol,2-(4-methylcyclohex-3-en-1-yl)propan-2-ol,5487|9699,DTXSID5026625|DTXSID5052672,CC1CCC(CC=1)C(C)(C)O,"InChI=1S/C10H18O/c1-8-4-6-9(7-5-8)10(2,3)11/h4,9,11H,5-7H2,1-3H3",WUOACPNHFRMFPN-UHFFFAOYSA-N,?,,"LI,J & PERDUE,EM (1995)",2.98
100842,98-57-7,98-57-7,[H]C1=C([H])C(S(=O)(=O)C([H])([H])[H])=C([H])C([H])=C1Cl,4-METHYLSULFONYLCHLOROBENZENE,4-Chlorophenyl methyl sulfone,1-chloro-4-(methylsulfonyl)benzene,5488,DTXSID3023974,CS(=O)(=O)c1ccc(Cl)cc1,"InChI=1S/C7H7ClO2S/c1-11(9,10)7-4-2-6(8)3-5-7/h2-5H,1H3",LMCOQDVJBWVNNI-UHFFFAOYSA-N,?,,"HANSCH,C ET AL. (1995)",1.06
100843,98-64-6,98-64-6,[H]C1=C([H])C(S(=O)(=O)N([H])[H])=C([H])C([H])=C1Cl,4-CHLOROBENZENESULFONAMIDE,4-Chlorobenzenesulphonamide,4-chlorobenzenesulfonamide,5489,DTXSID6052661,NS(=O)(=O)c1ccc(Cl)cc1,"InChI=1S/C6H6ClNO2S/c7-5-1-3-6(4-2-5)11(8,9)10/h1-4H,(H2,8,9,10)",HHHDJHHNEURCNV-UHFFFAOYSA-N,?,,SANGSTER (1994),1.15
100845,98-80-6,98-80-6,[H]OB(O[H])C1=C([H])C([H])=C([H])C([H])=C1[H],"BORONIC ACID, PHENYL-","Boronic acid, phenyl-",Phenylboronic acid,5491,DTXSID9059179,OB(O)c1ccccc1,"InChI=1S/C6H7BO2/c8-7(9)6-4-2-1-3-5-6/h1-5,8-9H",HXITXNWTGFUOAU-UHFFFAOYSA-N,?,,"HANSCH,C ET AL. (1995)",1.58
100846,98-82-8,98-82-8,[H]C1=C([H])C([H])=C(C([H])(C([H])([H])[H])C([H])([H])[H])C([H])=C1[H],CUMENE,Cumene,propan-2-ylbenzene,5492,DTXSID1021827,CC(C)c1ccccc1,"InChI=1S/C9H12/c1-8(2)9-6-4-3-5-7-9/h3-8H,1-2H3",RWGFKTVRMDUZSP-UHFFFAOYSA-N,?,,"HANSCH,C ET AL. (1995)",3.66
100847,98-83-9,98-83-9,[H]C([H])=C(C1=C([H])C([H])=C([H])C([H])=C1[H])C([H])([H])[H],ALPHA-METHYLSTYRENE,alpha-Methylstyrene,prop-1-en-2-ylbenzene,5493,DTXSID9025661,CC(=C)c1ccccc1,"InChI=1S/C9H10/c1-8(2)9-6-4-3-5-7-9/h3-7H,1H2,2H3",XYLMUPLGERFSHI-UHFFFAOYSA-N,?,,"HANSCH,C ET AL. (1995)",3.48
100849,98-89-5,98-89-5,[H]OC(=O)C1([H])C([H])([H])C([H])([H])C([H])([H])C([H])([H])C1([H])[H],CYCLOHEXANECARBOXYLIC ACID,Cyclohexanecarboxylic acid,Cyclohexanecarboxylic acid,5495,DTXSID8059180,OC(=O)C1CCCCC1,"InChI=1S/C7H12O2/c8-7(9)6-4-2-1-3-5-6/h6H,1-5H2,(H,8,9)",NZNMSOFKMUBTKW-UHFFFAOYSA-N,?,,"HANSCH,C ET AL. (1995)",1.96
100850,98-92-0,98-92-0,[H]C1=NC([H])=C(C(=O)N([H])[H])C([H])=C1[H],NICOTINAMIDE,Niacinamide,pyridine-3-carboxamide,5496,DTXSID2020929,NC(=O)c1ccc[n]c1,"InChI=1S/C6H6N2O/c7-6(9)5-2-1-3-8-4-5/h1-4H,(H2,7,9)",DFPAKSUCGFBDDF-UHFFFAOYSA-N,?,,"HANSCH,C ET AL. (1995)",-0.37
100851,98-95-3,98-95-3,[H]C1=C([H])C([H])=C([N+](=O)[O-])C([H])=C1[H],NITROBENZENE,Nitrobenzene,nitrobenzene,5497,DTXSID3020964,[O-][N+](=O)c1ccccc1,InChI=1S/C6H5NO2/c8-7(9)6-4-2-1-3-5-6/h1-5H,LQNUZADURLCDLV-UHFFFAOYSA-N,?,,"HANSCH,C ET AL. (1995)",1.85
100853,98-98-6,98-98-6,[H]OC(=O)C1=NC([H])=C([H])C([H])=C1[H],PICOLINIC ACID,Picolinic acid,pyridine-2-carboxylic acid,5499,DTXSID7031903,OC(=O)c1cccc[n]1,"InChI=1S/C6H5NO2/c8-6(9)5-3-1-2-4-7-5/h1-4H,(H,8,9)",SIOXPEMLGUPBBT-UHFFFAOYSA-N,?,,"HANSCH,C ET AL. (1995)",0.72
100854,99-02-5,99-02-5,[H]C1=C([H])C(C(=O)C([H])([H])[H])=C([H])C(Cl)=C1[H],M-CHLOROACETOPHENONE,"Ethanone, 1-(3-chlorophenyl)-",1-(3-chlorophenyl)ethanone,5500,DTXSID8059182,CC(=O)c1cccc(Cl)c1,"InChI=1S/C8H7ClO/c1-6(10)7-3-2-4-8(9)5-7/h2-5H,1H3",UUWJBXKHMMQDED-UHFFFAOYSA-N,?,,"HANSCH,C ET AL. (1995)",2.51
100855,99-03-6,99-03-6,[H]C1=C([H])C(C(=O)C([H])([H])[H])=C([H])C(N([H])[H])=C1[H],M-AMINOACETOPHENONE,3-Aminoacetophenone,1-(3-aminophenyl)ethanone,5501,DTXSID0021830,CC(=O)c1cccc(N)c1,"InChI=1S/C8H9NO/c1-6(10)7-3-2-4-8(9)5-7/h2-5H,9H2,1H3",CKQHAYFOPRIUOM-UHFFFAOYSA-N,?,,"DUNN,WJ ET AL. (1983)",0.83
100857,99-05-8,99-05-8,[H]OC(=O)C1=C([H])C([H])=C([H])C(N([H])[H])=C1[H],3-AMINOBENZOIC ACID,"Benzoic acid, 3-amino-",3-Aminobenzoic acid,5503,DTXSID3059183,Nc1cc(ccc1)C(O)=O,"InChI=1S/C7H7NO2/c8-6-3-1-2-5(4-6)7(9)10/h1-4H,8H2,(H,9,10)",XFDUHJPVQKIXHO-UHFFFAOYSA-N,?,,SANGSTER (1994),0.65
100858,99-06-9,99-06-9,[H]OC(=O)C1=C([H])C([H])=C([H])C(O[H])=C1[H],M-HYDROXYBENZOIC ACID,3-Hydroxybenzoic acid,3-hydroxybenzoic acid,5504,DTXSID6021610,Oc1cccc(c1)C(O)=O,"InChI=1S/C7H6O3/c8-6-3-1-2-5(4-6)7(9)10/h1-4,8H,(H,9,10)",IJFXRHURBJZNAO-UHFFFAOYSA-N,?,,"HANSCH,C ET AL. (1995)",1.5
100859,99-07-0,99-07-0,[H]OC1=C([H])C([H])=C([H])C(N(C([H])([H])[H])C([H])([H])[H])=C1[H],"PHENOL, 3-(DIMETHYLAMINO)-",3-Dimethylaminophenol,3-(dimethylamino)phenol,5505,DTXSID0025101,CN(C)c1cccc(O)c1,"InChI=1S/C8H11NO/c1-9(2)7-4-3-5-8(10)6-7/h3-6,10H,1-2H3",MESJRHHDBDCQTH-UHFFFAOYSA-N,?,,"HANSCH,C ET AL. (1995)",1.56
100861,99-09-2,99-09-2,[H]C1=C([H])C([N+](=O)[O-])=C([H])C(N([H])[H])=C1[H],3-NITROANILINE,3-Nitroaniline,3-nitroaniline,5507,DTXSID6025725,Nc1cc(ccc1)[N+]([O-])=O,"InChI=1S/C6H6N2O2/c7-5-2-1-3-6(4-5)8(9)10/h1-4H,7H2",XJCVRTZCHMZPBD-UHFFFAOYSA-N,?,,"HANSCH,C ET AL. (1995)",1.37
100862,99-10-5,99-10-5,[H]OC(=O)C1=C([H])C(O[H])=C([H])C(O[H])=C1[H],"3,5-DIHYDROXYBENZOIC ACID","Benzoic acid, 3,5-dihydroxy-","3,5-Dihydroxybenzoic acid",5508,DTXSID8059184,OC(=O)c1cc(O)cc(O)c1,"InChI=1S/C7H6O4/c8-5-1-4(7(10)11)2-6(9)3-5/h1-3,8-9H,(H,10,11)",UYEMGAFJOZZIFP-UHFFFAOYSA-N,?,,"HANSCH,C ET AL. (1995)",0.86