ChemID,source_casrn,CAS,SMILES,NAME,preferred_name,iupac,MPID,dsstox_substance_id,Canonical_QSARr,InChI_Code_QSARr,InChI Key_QSARr,Salt_Solvent,Salt_Solvent_ID,Kow Reference,LogP
101780,327-57-1,NOCAS_861874,[H]OC(=O)C([H])(N([H])[H])C([H])([H])C([H])([H])C([H])([H])C([H])([H])[H],A-AMINOCAPROIC ACID,,,6397,DTXSID40861874,CCCCC(N)C(O)=O,"InChI=1S/C6H13NO2/c1-2-3-4-5(7)6(8)9/h5H,2-4,7H2,1H3,(H,8,9)",LRQKBLKVPFOOQJ-UHFFFAOYSA-N,?,,"HANSCH,C ET AL. (1995)",-1.53
101781,327-98-0,327-98-0,[H]C1=C(Cl)C(OP(=S)(OC([H])([H])C([H])([H])[H])C([H])([H])C([H])([H])[H])=C([H])C(Cl)=C1Cl,TRICHLORONATE,Trichloronat,C10H12Cl3O2PS,6398,DTXSID9038420,CCP(=S)(Oc1cc(Cl)c(Cl)cc1Cl)OCC,"InChI=1S/C10H12Cl3O2PS/c1-3-14-16(17,4-2)15-10-6-8(12)7(11)5-9(10)13/h5-6H,3-4H2,1-2H3",ANIAQSUBRGXWLS-UHFFFAOYSA-N,?,,"HANSCH,C ET AL. (1995)",5.23
101782,328-74-5,328-74-5,[H]C1=C(N([H])[H])C([H])=C(C(F)(F)F)C([H])=C1C(F)(F)F,"3,5-BIS(TRIFLUOROME)ANILINE","Benzenamine, 3,5-bis(trifluoromethyl)-","3,5-Bis(trifluoromethyl)aniline",6399,DTXSID1059814,Nc1cc(cc(c1)C(F)(F)F)C(F)(F)F,"InChI=1S/C8H5F6N/c9-7(10,11)4-1-5(8(12,13)14)3-6(15)2-4/h1-3H,15H2",CDIDGWDGQGVCIB-UHFFFAOYSA-N,?,,"HANSCH,C ET AL. (1995)",3.57
101784,329-71-5,329-71-5,[H]OC1=C([H])C([N+](=O)[O-])=C([H])C([H])=C1[N+](=O)[O-],"2,5-DINITROPHENOL","2,5-Dinitrophenol","2,5-dinitrophenol",6401,DTXSID9022021,[O-][N+](=O)c1ccc(cc1O)[N+]([O-])=O,"InChI=1S/C6H4N2O5/c9-6-3-4(7(10)11)1-2-5(6)8(12)13/h1-3,9H",UWEZBKLLMKVIPI-UHFFFAOYSA-N,?,,"HANSCH,C ET AL. (1995)",1.75
101785,329-89-5,329-89-5,[H]C1=NC(N([H])[H])=C([H])C([H])=C1C(=O)N([H])[H],6-Aminonicotinamide,6-Aminonicotinamide,6-aminopyridine-3-carboxamide,6402,DTXSID5051446,Nc1ccc(c[n]1)C(N)=O,"InChI=1S/C6H7N3O/c7-5-2-1-4(3-9-5)6(8)10/h1-3H,(H2,7,9)(H2,8,10)",ZLWYEPMDOUQDBW-UHFFFAOYSA-N,?,,"WANG,R ET AL. (1997)",0.7
101786,330-39-2,330-39-2,[H]C1=C([H])C(N([H])C(=O)N(C([H])([H])[H])C([H])([H])[H])=C([H])C(F)=C1[H],"1,1-DIMETHYL-3-M-FLUOROPHENYLUREA","Urea, 3-(m-fluorophenyl)-1,1-dimethyl-","3-(3-fluorophenyl)-1,1-dimethylurea",6403,DTXSID80186634,CN(C)C(=O)Nc1cccc(F)c1,"InChI=1S/C9H11FN2O/c1-12(2)9(13)11-8-5-3-4-7(10)6-8/h3-6H,1-2H3,(H,11,13)",ANWCBSUPTRJETC-UHFFFAOYSA-N,?,,"HANSCH,C ET AL. (1995)",1.37
101788,330-55-2,330-55-2,[H]C1=C(Cl)C(Cl)=C([H])C(N([H])C(=O)N(OC([H])([H])[H])C([H])([H])[H])=C1[H],LINURON,Linuron,"3-(3,4-dichlorophenyl)-1-methoxy-1-methylurea",6405,DTXSID2024163,CON(C)C(=O)Nc1cc(Cl)c(Cl)cc1,"InChI=1S/C9H10Cl2N2O2/c1-13(15-2)9(14)12-6-3-4-7(10)8(11)5-6/h3-5H,1-2H3,(H,12,14)",XKJMBINCVNINCA-UHFFFAOYSA-N,?,,"HANSCH,C ET AL. (1995)",3.2
101789,330-64-3,330-64-3,[H]C1=C(OC(=O)N([H])C([H])([H])[H])C([H])=C(C([H])(C([H])([H])[H])C([H])([H])[H])C([H])=C1C([H])(C([H])([H])[H])C([H])([H])[H],"3,5-DI(IPR)-N-ME-PHENYLCARBAMATE","3,5-Diisopropylphenyl methylcarbamate","3,5-di(propan-2-yl)phenyl methylcarbamate",6406,DTXSID1041471,CNC(=O)Oc1cc(cc(c1)C(C)C)C(C)C,"InChI=1S/C14H21NO2/c1-9(2)11-6-12(10(3)4)8-13(7-11)17-14(16)15-5/h6-10H,1-5H3,(H,15,16)",CUTUCYVZTGGYDL-UHFFFAOYSA-N,?,,"HANSCH,C ET AL. (1995)",3.79
101790,331-25-9,331-25-9,[H]OC(=O)C([H])([H])C1=C([H])C(F)=C([H])C([H])=C1[H],M-FLUOROPHENYLACETIC ACID,"Benzeneacetic acid, 3-fluoro-",2-(3-fluorophenyl)acetic acid,6407,DTXSID0059821,OC(=O)Cc1cccc(F)c1,"InChI=1S/C8H7FO2/c9-7-3-1-2-6(4-7)5-8(10)11/h1-4H,5H2,(H,10,11)",YEAUYVGUXSZCFI-UHFFFAOYSA-N,?,,"HANSCH,C ET AL. (1995)",1.65
101792,332-33-2,332-33-2,[H]C1=C([H])C(N([H])C(=O)N(C([H])([H])[H])C([H])([H])[H])=C([H])C([H])=C1F,"1,1-DIMETHYL-3-P-FLUOROPHENYLUREA","Urea, 1,1-dimethyl-3-(p-fluorophenyl)-","3-(4-fluorophenyl)-1,1-dimethylurea",6409,DTXSID50186843,CN(C)C(=O)Nc1ccc(F)cc1,"InChI=1S/C9H11FN2O/c1-12(2)9(13)11-8-5-3-7(10)4-6-8/h3-6H,1-2H3,(H,11,13)",GNIZUUCYAIPGKZ-UHFFFAOYSA-N,?,,"HANSCH,C ET AL. (1995)",1.13
101793,333-41-5,333-41-5,[H]C1=C(OP(=S)(OC([H])([H])C([H])([H])[H])OC([H])([H])C([H])([H])[H])N=C(C([H])(C([H])([H])[H])C([H])([H])[H])N=C1C([H])([H])[H],DIAZINON,Diazinon,"O,O-diethyl O-[6-methyl-2-(propan-2-yl)pyrimidin-4-yl] phosphorothioate",6410,DTXSID9020407,Cc1cc([n]c([n]1)C(C)C)OP(=S)(OCC)OCC,"InChI=1S/C12H21N2O3PS/c1-6-15-18(19,16-7-2)17-11-8-10(5)13-12(14-11)9(3)4/h8-9H,6-7H2,1-5H3",FHIVAFMUCKRCQO-UHFFFAOYSA-N,?,,"HANSCH,C ET AL. (1995)",3.81
101794,334-48-5,334-48-5,[H]OC(=O)C([H])([H])C([H])([H])C([H])([H])C([H])([H])C([H])([H])C([H])([H])C([H])([H])C([H])([H])C([H])([H])[H],DECANOIC ACID,Decanoic acid,decanoic acid,6411,DTXSID9021554,CCCCCCCCCC(O)=O,"InChI=1S/C10H20O2/c1-2-3-4-5-6-7-8-9-10(11)12/h2-9H2,1H3,(H,11,12)",GHVNFZFCNZKVNT-UHFFFAOYSA-N,?,,"HANSCH,C ET AL. (1995)",4.09
101797,342-69-8,342-69-8,[H]OC([H])([H])C1([H])OC([H])(N2C([H])=NC3=C(SC([H])([H])[H])N=C([H])N=C32)C([H])(O[H])C1([H])O[H],"9H-PURINE, 6-(METHYLTHIO)-9-(beta-D-RIBOFURANOSY",6-Methylmercaptopurine ribonucleoside,6-(methylsulfanyl)-9-(beta-D-ribofuranosyl)-9H-purine,6413,DTXSID5030454,CSc1[n]c[n]c2c1[n]c[n]2C1OC(CO)C(O)C1O,"InChI=1S/C11H14N4O4S/c1-20-10-6-9(12-3-13-10)15(4-14-6)11-8(18)7(17)5(2-16)19-11/h3-5,7-8,11,16-18H,2H2,1H3",ZDRFDHHANOYUTE-UHFFFAOYSA-N,?,,SANGSTER (1994),0.09
101798,344-53-6,344-53-6,[H]C1=C(Cl)C([H])=C(C(F)(F)F)C(N([H])C(=O)C([H])([H])[H])=C1[H],2-CF3-4-CHLOROACETANILIDE,344-53-6,C9H7ClF3NO,6414,DTXSID60424223,CC(=O)Nc1ccc(Cl)cc1C(F)(F)F,"InChI=1S/C9H7ClF3NO/c1-5(15)14-8-3-2-6(10)4-7(8)9(11,12)13/h2-4H,1H3,(H,14,15)",IZNOWIFMPCHWNZ-UHFFFAOYSA-N,?,,"NAKAGAWA,Y ET AL. (1992)",1.98
101799,344-62-7,344-62-7,[H]C1=C([H])C([H])=C(C(F)(F)F)C(N([H])C(=O)C([H])([H])[H])=C1[H],O-CF3 ACETANILIDE,"Acetamide, N-(2-(trifluoromethyl)phenyl)- (9CI)",N-[2-(trifluoromethyl)phenyl]acetamide,6415,DTXSID50187971,CC(=O)Nc1ccccc1C(F)(F)F,"InChI=1S/C9H8F3NO/c1-6(14)13-8-5-3-2-4-7(8)9(10,11)12/h2-5H,1H3,(H,13,14)",OXDTZGRSCDEKGO-UHFFFAOYSA-N,?,,"NAKAGAWA,Y ET AL. (1992)",1.17
101801,346-18-9,346-18-9,[H]C1=C2C(=C([H])C(S(=O)(=O)N([H])[H])=C1Cl)S(=O)(=O)N(C([H])([H])[H])C([H])(C([H])([H])SC([H])([H])C(F)(F)F)N2[H],POLYTHIAZIDE,Polythiazide,C11H13ClF3N3O4S3,6417,DTXSID6025939,CN1C(CSCC(F)(F)F)Nc2cc(Cl)c(cc2S1(=O)=O)S(N)(=O)=O,"InChI=1S/C11H13ClF3N3O4S3/c1-18-10(4-23-5-11(13,14)15)17-7-2-6(12)8(24(16,19)20)3-9(7)25(18,21)22/h2-3,10,17H,4-5H2,1H3,(H2,16,19,20)",CYLWJCABXYDINA-UHFFFAOYSA-N,?,,SANGSTER (1994),1.9
101802,348-10-7,348-10-7,[H]OC(=O)C([H])([H])OC1=C([H])C([H])=C([H])C([H])=C1F,O-FLUOROPHENOXYACETIC ACID,(2-Fluorophenoxy)acetic acid,C8H7FO3,6418,DTXSID80278826,OC(=O)COc1ccccc1F,"InChI=1S/C8H7FO3/c9-6-3-1-2-4-7(6)12-5-8(10)11/h1-4H,5H2,(H,10,11)",CEAXCCNKYPOHDP-UHFFFAOYSA-N,?,,"HANSCH,C ET AL. (1995)",1.39
101803,348-54-9,348-54-9,[H]C1=C([H])C([H])=C(N([H])[H])C(F)=C1[H],2-FLUOROANILINE,o-Fluoroaniline,2-Fluoroaniline,6419,DTXSID8059843,Nc1ccccc1F,"InChI=1S/C6H6FN/c7-5-3-1-2-4-6(5)8/h1-4H,8H2",FTZQXOJYPFINKJ-UHFFFAOYSA-N,?,,"HANSCH,C ET AL. (1995)",1.26
101805,349-27-9,349-27-9,[H]C1=C(F)C(N([H])C(=O)C([H])([H])[H])=C([H])C(C(F)(F)F)=C1[H],2-FLUORO-5-CF3-ACETANILIDE,,,6421,DTXSID30879685,CC(=O)Nc1cc(ccc1F)C(F)(F)F,"InChI=1S/C9H7F4NO/c1-5(15)14-8-4-6(9(11,12)13)2-3-7(8)10/h2-4H,1H3,(H,14,15)",JXNQWKKPMBQUHS-UHFFFAOYSA-N,?,,"NAKAGAWA,Y ET AL. (1992)",2.24
101806,349-75-7,349-75-7,[H]OC([H])([H])C1=C([H])C(C(F)(F)F)=C([H])C([H])=C1[H],M-(TRIFLUOROME)BENZYL ALCOHOL,3-(Trifluoromethyl)benzylic alcohol,[3-(trifluoromethyl)phenyl]methanol,6422,DTXSID20188455,OCc1cc(ccc1)C(F)(F)F,"InChI=1S/C8H7F3O/c9-8(10,11)7-3-1-2-6(4-7)5-12/h1-4,12H,5H2",BXEHKCUWIODEDE-UHFFFAOYSA-N,?,,"HANSCH,C ET AL. (1995)",2.24
101807,349-82-6,349-82-6,[H]OC(=O)C([H])([H])OC1=C([H])C(C(F)(F)F)=C([H])C([H])=C1[H],M-(TRIFLUOROME)PHENOXYACETIC ACID,[3-(trifluoromethyl)phenoxy]acetic acid,C9H7F3O3,6423,DTXSID90365837,OC(=O)COc1cc(ccc1)C(F)(F)F,"InChI=1S/C9H7F3O3/c10-9(11,12)6-2-1-3-7(4-6)15-5-8(13)14/h1-4H,5H2,(H,13,14)",KTTDWGZRVMNQNZ-UHFFFAOYSA-N,?,,"HANSCH,C ET AL. (1995)",2.36
101809,350-03-8,350-03-8,[H]C1=NC([H])=C([H])C([H])=C1C(=O)C([H])([H])[H],3-ACETYLPYRIDINE,3-Acetylpyridine,1-(pyridin-3-yl)ethanone,6425,DTXSID7044421,CC(=O)c1ccc[n]c1,"InChI=1S/C7H7NO/c1-6(9)7-3-2-4-8-5-7/h2-5H,1H3",WEGYGNROSJDEIW-UHFFFAOYSA-N,?,,"HANSCH,C ET AL. (1995)",0.43
101810,350-46-9,350-46-9,[H]C1=C([H])C([N+](=O)[O-])=C([H])C([H])=C1F,4-FLUORONITROBENZENE,1-Fluoro-4-nitrobenzene,1-fluoro-4-nitrobenzene,6426,DTXSID9022025,[O-][N+](=O)c1ccc(F)cc1,InChI=1S/C6H4FNO2/c7-5-1-3-6(4-2-5)8(9)10/h1-4H,WFQDTOYDVUWQMS-UHFFFAOYSA-N,?,,"HANSCH,C ET AL. (1995)",1.8
101811,351-28-0,351-28-0,[H]C1=C([H])C(N([H])C(=O)C([H])([H])[H])=C([H])C(F)=C1[H],3-FLUOROACETANILIDE,N-(3-Fluorophenyl)acetamide,N-(3-FLUOROPHENYL)ACETAMIDE,6427,DTXSID00188594,CC(=O)Nc1cccc(F)c1,"InChI=1S/C8H8FNO/c1-6(11)10-8-4-2-3-7(9)5-8/h2-5H,1H3,(H,10,11)",AQLLDCFUQXGLHM-UHFFFAOYSA-N,?,,"NAKAGAWA,Y ET AL. (1992)",1.65
101813,351-36-0,351-36-0,[H]C1=C([H])C(N([H])C(=O)C([H])([H])[H])=C([H])C(C(F)(F)F)=C1[H],M-(TRIFLUOROME)ACETANILIDE,"Acetamide, N-(3-(trifluoromethyl)phenyl)- (9CI)",N-[3-(trifluoromethyl)phenyl]acetamide,6429,DTXSID60188595,CC(=O)Nc1cc(ccc1)C(F)(F)F,"InChI=1S/C9H8F3NO/c1-6(14)13-8-4-2-3-7(5-8)9(10,11)12/h2-5H,1H3,(H,13,14)",HNIPNANLYHXYDE-UHFFFAOYSA-N,?,,"HANSCH,C ET AL. (1995)",2.56
101814,351-83-7,351-83-7,[H]C1=C([H])C(N([H])C(=O)C([H])([H])[H])=C([H])C([H])=C1F,4-FLUOROACETANILIDE,4-Fluoroacetanilide,N-(4-FLUOROPHENYL)ACETAMIDE,6430,DTXSID40188598,CC(=O)Nc1ccc(F)cc1,"InChI=1S/C8H8FNO/c1-6(11)10-8-4-2-7(9)3-5-8/h2-5H,1H3,(H,10,11)",JHEFOJNPLXSWNZ-UHFFFAOYSA-N,?,,"HANSCH,C ET AL. (1995)",1.47
101815,352-11-4,352-11-4,[H]C1=C([H])C(C([H])([H])Cl)=C([H])C([H])=C1F,P-FLUOROBENZYL CHLORIDE,"Benzene, 1-(chloromethyl)-4-fluoro-",1-(Chloromethyl)-4-fluorobenzene,6431,DTXSID7059850,Fc1ccc(CCl)cc1,"InChI=1S/C7H6ClF/c8-5-6-1-3-7(9)4-2-6/h1-4H,5H2",IZXWCDITFDNEBY-UHFFFAOYSA-N,?,,"HANSCH,C ET AL. (1995)",2.73
101817,352-33-0,352-33-0,[H]C1=C([H])C(Cl)=C([H])C([H])=C1F,P-CHLOROFLUOROBENZENE,"Benzene, 1-chloro-4-fluoro-",1-Chloro-4-fluorobenzene,6433,DTXSID2059853,Fc1ccc(Cl)cc1,InChI=1S/C6H4ClF/c7-5-1-3-6(8)4-2-5/h1-4H,RJCGZNCCVKIBHO-UHFFFAOYSA-N,?,,"DUNN,WJ ET AL. (1983)",2.78
101818,352-41-0|552-41-0,552-41-0,[H]OC1=C(C(=O)C([H])([H])[H])C([H])=C([H])C(OC([H])([H])[H])=C1[H],"ACETOPHENONE,2-HYDROXY-4-METHOXY, 2-HYDROXY-4-METHOXY-ACETOPHENON",2'-Hydroxy-4'-methoxyacetophenone,1-(2-hydroxy-4-methoxyphenyl)ethanone,6434|6835,DTXSID1022059,CC(=O)c1ccc(cc1O)OC,"InChI=1S/C9H10O3/c1-6(10)8-4-3-7(12-2)5-9(8)11/h3-5,11H,1-2H3",UILPJVPSNHJFIK-UHFFFAOYSA-N,?,,BIOBYTE STARLIST (2009),1.98
101819,352-61-4,352-61-4,[H]OC([H])([H])C([H])([H])C([H])([H])C([H])([H])C(F)(F)F,"5,5,5-TRIFLUORO-1-PENTANOL","5,5,5-trifluoropentan-1-ol",C5H9F3O,6435,DTXSID40377829,OCCCCC(F)(F)F,"InChI=1S/C5H9F3O/c6-5(7,8)3-1-2-4-9/h9H,1-4H2",WNHMIKSCDKSJDI-UHFFFAOYSA-N,?,,"MULLER,N (1986)",1.15
101821,352-87-4,352-87-4,[H]C([H])=C(C(=O)OC([H])([H])C(F)(F)F)C([H])([H])[H],"2,2,2-TRIFLUOROETHYL METHACRYLATE","2,2,2-Trifluoroethyl methacrylate","2,2,2-trifluoroethyl 2-methylprop-2-enoate",6437,DTXSID7059856,CC(=C)C(=O)OCC(F)(F)F,"InChI=1S/C6H7F3O2/c1-4(2)5(10)11-3-6(7,8)9/h1,3H2,2H3",QTKPMCIBUROOGY-UHFFFAOYSA-N,?,,SANGSTER (1993),1.56
101822,352-93-2,352-93-2,[H]C([H])([H])C([H])([H])SC([H])([H])C([H])([H])[H],DIETHYLSULFIDE,Diethyl sulfide,diethyl sulfide,6438,DTXSID5027146,CCSCC,"InChI=1S/C4H10S/c1-3-5-4-2/h3-4H2,1-2H3",LJSQFQKUNVCTIA-UHFFFAOYSA-N,?,,"HANSCH,C ET AL. (1995)",1.95
101823,354-38-1,354-38-1,[H]N([H])C(=O)C(F)(F)F,TRIFLUOROACETAMIDE,"Acetamide, 2,2,2-trifluoro-","2,2,2-Trifluoroacetamide",6439,DTXSID1059868,NC(=O)C(F)(F)F,"InChI=1S/C2H2F3NO/c3-2(4,5)1(6)7/h(H2,6,7)",NRKYWOKHZRQRJR-UHFFFAOYSA-N,?,,"HANSCH,C ET AL. (1995)",0.12
101825,356-12-7,356-12-7,[H]OC1([H])C([H])([H])C2(C([H])([H])[H])C3(C(=O)C([H])([H])OC(=O)C([H])([H])[H])OC(C([H])([H])[H])(C([H])([H])[H])OC3([H])C([H])([H])C2([H])C2([H])C([H])([H])C([H])(F)C3=C([H])C(=O)C([H])=C([H])C3(C([H])([H])[H])C12F,FLUOCINONIDE,Fluocinonide,"2-[(4aS,4bR,5S,6aS,6bS,9aR,10aS,10bS,12S)-4b,12-difluoro-5-hydroxy-4a,6a,8,8-tetramethyl-2-oxo-2,4a,4b,5,6,6a,9a,10,10a,10b,11,12-dodecahydro-6bH-naphtho[2',1':4,5]indeno[1,2-d][1,3]dioxol-6b-yl]-2-oxoethyl acetate",6441,DTXSID8045307,CC1(C)OC2(C(CC3C4CC(F)C5=CC(=O)C=CC5(C)C4(F)C(O)CC23C)O1)C(=O)COC(C)=O,"InChI=1S/C26H32F2O7/c1-13(29)33-12-20(32)26-21(34-22(2,3)35-26)10-15-16-9-18(27)17-8-14(30)6-7-23(17,4)25(16,28)19(31)11-24(15,26)5/h6-8,15-16,18-19,21,31H,9-12H2,1-5H3",WJOHZNCJWYWUJD-UHFFFAOYSA-N,?,,"HANSCH,C ET AL. (1995)",3.19
101826,357-56-2,357-56-2,[H]C1=C([H])C([H])=C(C(C(=O)N2C([H])([H])C([H])([H])C([H])([H])C2([H])[H])(C2=C([H])C([H])=C([H])C([H])=C2[H])C([H])(C([H])([H])[H])C([H])([H])N2C([H])([H])C([H])([H])OC([H])([H])C2([H])[H])C([H])=C1[H],DEXTROMORAMIDE,Dextromoramide,"(3S)-3-methyl-4-(morpholin-4-yl)-2,2-diphenyl-1-(pyrrolidin-1-yl)butan-1-one",6442,DTXSID8022909,CC(CN1CCOCC1)C(C(=O)N1CCCC1)(c1ccccc1)c1ccccc1,"InChI=1S/C25H32N2O2/c1-21(20-26-16-18-29-19-17-26)25(22-10-4-2-5-11-22,23-12-6-3-7-13-23)24(28)27-14-8-9-15-27/h2-7,10-13,21H,8-9,14-20H2,1H3",INUNXTSAACVKJS-UHFFFAOYSA-N,?,,SANGSTER (1994),3.61
101827,357-57-3,357-57-3,[H]C1=C2C(=C([H])C(OC([H])([H])[H])=C1OC([H])([H])[H])C13C([H])([H])C([H])([H])N4C([H])([H])C5=C([H])C([H])([H])OC6([H])C([H])([H])C(=O)N2C1([H])C6([H])C5([H])C([H])([H])C43[H],BRUCINE,Brucine,"2,3-dimethoxystrychnidin-10-one",6443,DTXSID2024662,COc1cc2c(cc1OC)N1C3C4C(CC1=O)OCC=C1CN5CCC23C5CC14,"InChI=1S/C23H26N2O4/c1-27-16-8-14-15(9-17(16)28-2)25-20(26)10-18-21-13-7-19-23(14,22(21)25)4-5-24(19)11-12(13)3-6-29-18/h3,8-9,13,18-19,21-22H,4-7,10-11H2,1-2H3",RRKTZKIUPZVBMF-UHFFFAOYSA-N,?,,"HANSCH,C ET AL. (1995)",0.98
101829,359-85-3,359-85-3,[H]C1=NS(=O)(=O)C2=C([H])C([H])=C([H])C([H])=C2N1[H],"124-BENZOTHIADIAZINE-1,1-O2","2H-1,2,4-Benzothiadiazine-1,1-dioxide","4H-benzo[e][1,2,4]thiadiazine 1,1-dioxide",6445,DTXSID20189467,O=S1(=O)N=CNc2ccccc12,"InChI=1S/C7H6N2O2S/c10-12(11)7-4-2-1-3-6(7)8-5-9-12/h1-5H,(H,8,9)",BBNGVMNBBLPZIR-UHFFFAOYSA-N,?,,"HANSCH,C ET AL. (1995)",0.16
101830,360-64-5,360-64-5,[H]C1=C([H])C([H])=C(C(F)(F)F)C(C(=O)N([H])[H])=C1[H],2-TRIFLUOROMETHYLBENZAMIDE,o-(Trifluoromethyl)benzamide,2-(Trifluoromethyl)benzamide,6446,DTXSID40189560,NC(=O)c1ccccc1C(F)(F)F,"InChI=1S/C8H6F3NO/c9-8(10,11)6-4-2-1-3-5(6)7(12)13/h1-4H,(H2,12,13)",QBAYIBZITZBSFO-UHFFFAOYSA-N,?,,"NAKAGAWA,Y ET AL. (1992)",0.68
101831,360-65-6,NOCAS_861898,[H]OC(=O)C([H])([H])N([H])C(=O)C([H])([H])C([H])([H])C([H])(C([H])([H])[H])C1([H])C([H])([H])C([H])([H])C2([H])C3([H])C([H])([H])C([H])([H])C4([H])C([H])([H])C([H])(O[H])C([H])([H])C([H])([H])C4(C([H])([H])[H])C3([H])C([H])([H])C([H])(O[H])C12C([H])([H])[H],GLYCODEOXYCHOLIC ACID,,,6447,DTXSID80861898,CC(CCC(=O)NCC(O)=O)C1CCC2C3CCC4CC(O)CCC4(C)C3CC(O)C21C,"InChI=1S/C26H43NO5/c1-15(4-9-23(30)27-14-24(31)32)19-7-8-20-18-6-5-16-12-17(28)10-11-25(16,2)21(18)13-22(29)26(19,20)3/h15-22,28-29H,4-14H2,1-3H3,(H,27,30)(H,31,32)",WVULKSPCQVQLCU-UHFFFAOYSA-N,?,,"RODA,A ET AL. (1990)",2.25
101833,360-97-4,360-97-4,[H]C1=NC(N([H])[H])=C(C(=O)N([H])[H])N1[H],"1H-Imidazole-4-carboxamide, 5-amino-","1H-Imidazole-4-carboxamide, 5-amino-",5-amino-3H-imidazole-4-carboxamide,6449,DTXSID8059891,Nc1[n]c[nH]c1C(N)=O,"InChI=1S/C4H6N4O/c5-3-2(4(6)9)7-1-8-3/h1H,5H2,(H2,6,9)(H,7,8)",DVNYTAVYBRSTGK-UHFFFAOYSA-N,?,,"HANSCH,C ET AL. (1995)",-1.1
101834,362-29-8,362-29-8,[H]C1=C([H])C2=C(C([H])=C1[H])N(C([H])([H])C([H])(N(C([H])([H])[H])C([H])([H])[H])C([H])([H])[H])C1=C([H])C(C(=O)C([H])([H])C([H])([H])[H])=C([H])C([H])=C1S2,Propiomazine,Propiomazine,1-{10-[2-(dimethylamino)propyl]-10H-phenothiazin-2-yl}propan-1-one,6450,DTXSID1023520,CN(C)C(C)CN1c2cc(ccc2Sc2ccccc12)C(=O)CC,"InChI=1S/C20H24N2OS/c1-5-18(23)15-10-11-20-17(12-15)22(13-14(2)21(3)4)16-8-6-7-9-19(16)24-20/h6-12,14H,5,13H2,1-4H3",UVOIBTBFPOZKGP-UHFFFAOYSA-N,?,,BIOBYTE (1995),4.79
101835,363-03-1,363-03-1,[H]C1=C([H])C(=O)C(C2=C([H])C([H])=C([H])C([H])=C2[H])=C([H])C1=O,"2,5-CYCLOHEXADIENE-1,4-DIONE, 2-PHENYL-","2,5-Cyclohexadiene-1,4-dione, 2-phenyl-","2-phenylcyclohexa-2,5-diene-1,4-dione",6451,DTXSID3059892,O=C1C=C(c2ccccc2)C(=O)C=C1,InChI=1S/C12H8O2/c13-10-6-7-12(14)11(8-10)9-4-2-1-3-5-9/h1-8H,RLQZIECDMISZHS-UHFFFAOYSA-N,?,,SANGSTER (1993),1.95
101837,363-72-4,363-72-4,[H]C1=C(F)C(F)=C(F)C(F)=C1F,PENTAFLUOROBENZENE,Pentafluorobenzene,"1,2,3,4,5-Pentafluorobenzene",6453,DTXSID8059893,Fc1c(F)c(F)cc(F)c1F,InChI=1S/C6HF5/c7-2-1-3(8)5(10)6(11)4(2)9/h1H,WACNXHCZHTVBJM-UHFFFAOYSA-N,?,,"HANSCH,C ET AL. (1995)",2.53
101838,364-62-5,364-62-5,[H]C1=C(Cl)C(N([H])[H])=C([H])C(OC([H])([H])[H])=C1C(=O)N([H])C([H])([H])C([H])([H])N(C([H])([H])C([H])([H])[H])C([H])([H])C([H])([H])[H],METOCLOPRAMIDE,Metoclopramide,4-amino-5-chloro-N-[2-(diethylamino)ethyl]-2-methoxybenzamide,6454,DTXSID6045169,COc1cc(N)c(Cl)cc1C(=O)NCCN(CC)CC,"InChI=1S/C14H22ClN3O2/c1-4-18(5-2)7-6-17-14(19)10-8-11(15)12(16)9-13(10)20-3/h8-9H,4-7,16H2,1-3H3,(H,17,19)",TTWJBBZEZQICBI-UHFFFAOYSA-N,?,,"HANSCH,C ET AL. (1995)",2.62
101839,364-74-9,364-74-9,[H]C1=C(F)C([H])=C([N+](=O)[O-])C(F)=C1[H],"BENZENE, 1,4-DIFLUORO-2-NITRO-","2,5-Difluoronitrobenzene","1,4-Difluoro-2-nitrobenzene",6455,DTXSID60189921,[O-][N+](=O)c1cc(F)ccc1F,InChI=1S/C6H3F2NO2/c7-4-1-2-5(8)6(3-4)9(10)11/h1-3H,XNJAYQHWXYJBBD-UHFFFAOYSA-N,?,,SANGSTER (1993),1.86
101841,366-18-7,366-18-7,[H]C1=NC(C2=C([H])C([H])=C([H])C([H])=N2)=C([H])C([H])=C1[H],"2,2-BIPYRIDINE","2,2'-Dipyridyl","2,2'-bipyridine",6457,DTXSID9040635,c1ccc[n]c1-c1cccc[n]1,InChI=1S/C10H8N2/c1-3-7-11-9(5-1)10-6-2-4-8-12-10/h1-8H,ROFVEXUMMXZLPA-UHFFFAOYSA-N,?,,"DE VOOGT,P ET AL. (1990)",1.5
101842,367-11-3,367-11-3,[H]C1=C([H])C([H])=C(F)C(F)=C1[H],"1,2-DIFLUOROBENZENE","Benzene, 1,2-difluoro-","1,2-Difluorobenzene",6458,DTXSID2075390,Fc1ccccc1F,InChI=1S/C6H4F2/c7-5-3-1-2-4-6(5)8/h1-4H,GOYDNIKZWGIXJT-UHFFFAOYSA-N,?,,"HANSCH,C ET AL. (1995)",2.37
101843,367-12-4,367-12-4,[H]OC1=C([H])C([H])=C([H])C([H])=C1F,O-FLUOROPHENOL,2-Fluorophenol,2-fluorophenol,6459,DTXSID0047745,Oc1ccccc1F,"InChI=1S/C6H5FO/c7-5-3-1-2-4-6(5)8/h1-4,8H",HFHFGHLXUCOHLN-UHFFFAOYSA-N,?,,"HANSCH,C ET AL. (1995)",1.71
101845,367-23-7,367-23-7,[H]C1=C(F)C([H])=C(F)C(F)=C1[H],"BENZENE, 1,2,4-TRIFLUORO-","1,2,4-Trifluorobenzene","1,2,4-Trifluorobenzene",6461,DTXSID30190140,Fc1cc(F)c(F)cc1,InChI=1S/C6H3F3/c7-4-1-2-5(8)6(9)3-4/h1-3H,PEBWOGPSYUIOBP-UHFFFAOYSA-N,?,,SANGSTER (1993),2.52
101846,367-25-9,367-25-9,[H]C1=C([H])C(N([H])[H])=C(F)C([H])=C1F,"2,4-DIFLUOROANILINE","2,4-Difluoroaniline","2,4-difluoroaniline",6462,DTXSID6025064,Nc1ccc(F)cc1F,"InChI=1S/C6H5F2N/c7-4-1-2-6(9)5(8)3-4/h1-3H,9H2",CEPCPXLLFXPZGW-UHFFFAOYSA-N,?,,"HANSCH,C ET AL. (1995)",1.54
101847,367-49-7,367-49-7,[H]N(C(=O)C([H])([H])F)C([H])([H])[H],A-FLUORO-N-METHYLACETAMIDE,,,6463,DTXSID30878698,CNC(=O)CF,"InChI=1S/C3H6FNO/c1-5-3(6)2-4/h2H2,1H3,(H,5,6)",IPEFMOGGPRUBRR-UHFFFAOYSA-N,?,,"HANSCH,C ET AL. (1995)",-0.83
101849,369-24-4,369-24-4,[H]C1=NC(F)=C([H])C(C(=O)N([H])N([H])[H])=C1[H],2-FLUOROISONIAZID,2-fluoropyridine-4-carbohydrazide,C6H6FN3O,6465,DTXSID80314076,NNC(=O)c1cc[n]c(F)c1,"InChI=1S/C6H6FN3O/c7-5-3-4(1-2-9-5)6(11)10-8/h1-3H,8H2,(H,10,11)",VYNMVVHQLHUXOK-UHFFFAOYSA-N,?,,"HANSCH,C ET AL. (1995)",-0.11
101850,370-09-2,370-09-2,[H]C1=NC([H])=C(C([H])([H])N2C([H])([H])C([H])([H])C([H])([H])C2([H])[H])C([H])=C1[H],3-PYRIDYLMETHYL-N-PYRROLIDINE,N-(3-Pyridylmethyl)pyrrolidine,3-(pyrrolidin-1-ylmethyl)pyridine,6466,DTXSID90190489,C(c1c[n]ccc1)N1CCCC1,"InChI=1S/C10H14N2/c1-2-7-12(6-1)9-10-4-3-5-11-8-10/h3-5,8H,1-2,6-7,9H2",YFCWBKBNFCDPDF-UHFFFAOYSA-N,?,,"HANSCH,C ET AL. (1995)",1.1
101851,370-86-5,370-86-5,[H]C1=C([H])C(N([H])N=C(C#N)C#N)=C([H])C([H])=C1OC(F)(F)F,"PROPANEDINITRILE, [[4-(TRIFLUOROMETHOXY)PHENYL]H",Carbonyl cyanide p-trifluoromethoxyphenylhydrazone,2-[[4-(trifluoromethoxy)phenyl]hydrazinylidene]propanedinitrile,6467,DTXSID40190494,N#CC(C#N)=NNc1ccc(cc1)OC(F)(F)F,"InChI=1S/C10H5F3N4O/c11-10(12,13)18-9-3-1-7(2-4-9)16-17-8(5-14)6-15/h1-4,16H",BMZRVOVNUMQTIN-UHFFFAOYSA-N,?,,"STURDIK,E ET AL. (1985)",3.68
101853,371-41-5,371-41-5,[H]OC1=C([H])C([H])=C(F)C([H])=C1[H],P-FLUOROPHENOL,4-Fluorophenol,4-fluorophenol,6469,DTXSID0052047,Oc1ccc(F)cc1,"InChI=1S/C6H5FO/c7-5-1-3-6(8)4-2-5/h1-4,8H",RHMPLDJJXGPMEX-UHFFFAOYSA-N,?,,"HANSCH,C ET AL. (1995)",1.77