ChemID,source_casrn,CAS,SMILES,NAME,preferred_name,iupac,MPID,dsstox_substance_id,Canonical_QSARr,InChI_Code_QSARr,InChI Key_QSARr,Salt_Solvent,Salt_Solvent_ID,Kow Reference,LogP
103949,2571-81-5,2571-81-5,[H]OC12C([H])([H])C([H])([H])C(=O)C1(C([H])([H])[H])C1([H])OC(=O)C(=C([H])[H])C1([H])C([H])([H])C([H])([H])C2([H])C([H])([H])[H],"AZULENO[4,5-B]FURAN-2,9-DIONE, DECAHYDRO-6A-HYDR",,,8457,DTXSID20874700,CC12C3OC(=O)C(=C)C3CCC(C)C1(O)CCC2=O,"InChI=1S/C15H20O4/c1-8-4-5-10-9(2)13(17)19-12(10)14(3)11(16)6-7-15(8,14)18/h8,10,12,18H,2,4-7H2,1,3H3",GEUJJEYGSRWXPC-UHFFFAOYSA-N,?,,SANGSTER (1994),0.83
103950,2577-40-4,2577-22-2,[H]OC(=O)C([H])(N([H])C(=O)C([H])(N([H])[H])C([H])([H])C1=C([H])C([H])=C([H])C([H])=C1[H])C([H])([H])C1=C([H])C([H])=C([H])C([H])=C1[H],PHE-PHE,"PUBCHEM_36688993, PUBCHEM_36688995",C18H20N2O3,8458,DTXSID00653191,NC(Cc1ccccc1)C(=O)NC(Cc1ccccc1)C(O)=O,"InChI=1S/C18H20N2O3/c19-15(11-13-7-3-1-4-8-13)17(21)20-16(18(22)23)12-14-9-5-2-6-10-14/h1-10,15-16H,11-12,19H2,(H,20,21)(H,22,23)",GKZIWHRNKRBEOH-UHFFFAOYSA-N,?,,BIOBYTE STARLIST (2009),-0.85
103951,,2578-81-6,[H]OC(=O)C([H])(N([H])C(=O)C([H])(N([H])C(=O)C([H])(N([H])[H])C([H])([H])C1=C([H])C([H])=C([H])C([H])=C1[H])C([H])([H])C1=C([H])C([H])=C([H])C([H])=C1[H])C([H])([H])C1=C([H])C([H])=C([H])C([H])=C1[H],PHE-PHE-PHE,,,8459,,NC(Cc1ccccc1)C(=O)NC(Cc1ccccc1)C(=O)NC(Cc1ccccc1)C(O)=O,"InChI=1S/C27H29N3O4/c28-22(16-19-10-4-1-5-11-19)25(31)29-23(17-20-12-6-2-7-13-20)26(32)30-24(27(33)34)18-21-14-8-3-9-15-21/h1-15,22-24H,16-18,28H2,(H,29,31)(H,30,32)(H,33,34)",CBENHWCORLVGEQ-UHFFFAOYSA-N,?,,BIOBYTE STARLIST (2009),-0.02
103953,2588-03-6,2588-03-6,[H]C([H])(SP(=S)(OC([H])([H])C([H])([H])[H])OC([H])([H])C([H])([H])[H])S(=O)C([H])([H])C([H])([H])[H],PHORATE SULFOXIDE,Phorate sulfoxide,"O,O-diethyl S-[(ethylsulfinyl)methyl] phosphorodithioate",8461,DTXSID1042283,CCS(=O)CSP(=S)(OCC)OCC,"InChI=1S/C7H17O3PS3/c1-4-9-11(12,10-5-2)13-7-14(8)6-3/h4-7H2,1-3H3",XRQHTUDGPWMPKX-UHFFFAOYSA-N,?,,"HANSCH,C & LEO,AJ (1985)",1.78
103954,2588-04-7,2588-04-7,[H]C([H])([H])C([H])([H])OP(=S)(OC([H])([H])C([H])([H])[H])SC([H])([H])S(=O)(=O)C([H])([H])C([H])([H])[H],PHORATE SULFONE,Phorate sulfone,"O,O-diethyl S-[(ethylsulfonyl)methyl] phosphorodithioate",8462,DTXSID6042282,CCS(=O)(=O)CSP(=S)(OCC)OCC,"InChI=1S/C7H17O4PS3/c1-4-10-12(13,11-5-2)14-7-15(8,9)6-3/h4-7H2,1-3H3",YVPSNUIHHFTTRL-UHFFFAOYSA-N,?,,"BOWMAN,BT & SANS,WW (1983A)",1.99
103955,2588-05-8,2588-05-8,[H]C([H])(SP(=O)(OC([H])([H])C([H])([H])[H])OC([H])([H])C([H])([H])[H])S(=O)C([H])([H])C([H])([H])[H],PHORATE OXON SULFOXIDE,Phorate oxon sulfoxide,"O,O-diethyl S-[(ethylsulfinyl)methyl] phosphorothioate",8463,DTXSID6042284,CCS(=O)CSP(=O)(OCC)OCC,"InChI=1S/C7H17O4PS2/c1-4-10-12(8,11-5-2)13-7-14(9)6-3/h4-7H2,1-3H3",RCRHKXGEYNVPDK-UHFFFAOYSA-N,?,,"HANSCH,C & LEO,AJ (1985)",1.78
103958,2589-65-3,2589-65-3,[H]C1=C(Cl)C(C([H])([H])[H])=C([H])C(OC(=O)N([H])C([H])([H])[H])=C1[H],3-ME-4-CLPHENYL-N-ME CARBAMATE,"Carbamic acid, methyl-, 4-chloro-m-tolyl ester",(4-chloro-3-methylphenyl) N-methylcarbamate,8465,DTXSID50180543,Cc1cc(ccc1Cl)OC(=O)NC,"InChI=1S/C9H10ClNO2/c1-6-5-7(3-4-8(6)10)13-9(12)11-2/h3-5H,1-2H3,(H,11,12)",CWOGPWIJFSPUMU-UHFFFAOYSA-N,?,,"HANSCH,C ET AL. (1995)",2.57
103959,2593-15-9,2593-15-9,[H]C([H])([H])C([H])([H])OC1=NC(C(Cl)(Cl)Cl)=NS1,ETRIDAZOLE,Etridiazole,"5-ethoxy-3-(trichloromethyl)-1,2,4-thiadiazole",8466,DTXSID3032547,CCOc1[n]c([n][s]1)C(Cl)(Cl)Cl,"InChI=1S/C5H5Cl3N2OS/c1-2-11-4-9-3(10-12-4)5(6,7)8/h2H2,1H3",KQTVWCSONPJJPE-UHFFFAOYSA-N,?,,"TOMLIN,C (1997)",3.37
103960,2594-17-4,2594-17-4,[H]N(C(=O)OC([H])([H])C([H])([H])C([H])([H])C([H])([H])C([H])([H])[H])C([H])([H])[H],O-PENTYL-N-METHYLCARBAMATE,,,8467,DTXSID60879017,CCCCCOC(=O)NC,"InChI=1S/C7H15NO2/c1-3-4-5-6-10-7(9)8-2/h3-6H2,1-2H3,(H,8,9)",JXYAKLVYRCADDZ-UHFFFAOYSA-N,?,,"HANSCH,C ET AL. (1995)",1.96
103962,2598-29-0,2598-29-0,[H]C1=C([H])C([H])=C2C(=N1)C(OC(=O)C([H])([H])[H])=C([H])C([H])=C2[H],8-ACETYLOXYQUINOLINE,"8-Quinolinol, acetate (ester)",quinolin-8-yl acetate,8469,DTXSID30180642,CC(=O)Oc1cccc2ccc[n]c21,"InChI=1S/C11H9NO2/c1-8(13)14-10-6-2-4-9-5-3-7-12-11(9)10/h2-7H,1H3",MZPCTRNDYNHZQE-UHFFFAOYSA-N,?,,"HANSCH,C ET AL. (1995)",2.03
103964,2600-69-3,2600-69-3,[H]C([H])(SC([H])([H])C([H])([H])[H])SP(=O)(OC([H])([H])C([H])([H])[H])OC([H])([H])C([H])([H])[H],"PHORATE, O-ANALOG",Phorate oxon,"O,O-diethyl S-[(ethylsulfanyl)methyl] phosphorothioate",8470,DTXSID4037586,CCSCSP(=O)(OCC)OCC,"InChI=1S/C7H17O3PS2/c1-4-9-11(8,10-5-2)13-7-12-6-3/h4-7H2,1-3H3",FMXFZNGITFNSAG-UHFFFAOYSA-N,?,,"HANSCH,C ET AL. (1995)",2.07
103965,2603-10-3,2603-10-3,[H]C1=C([H])C([H])=C(N([H])C(=O)OC([H])([H])[H])C([H])=C1[H],METHYL N-PHENYLCARBAMATE,Methyl phenylcarbamate,Methyl N-phenylcarbamate,8471,DTXSID00180674,COC(=O)Nc1ccccc1,"InChI=1S/C8H9NO2/c1-11-8(10)9-7-5-3-2-4-6-7/h2-6H,1H3,(H,9,10)",IAGUPODHENSJEZ-UHFFFAOYSA-N,?,,"TAKAHASHI,K ET AL. (1988)",1.75
103967,2617-79-0,2617-79-0,[H]C(=O)N([H])C1=C([H])C([H])=C(Cl)C([H])=C1[H],P-CHLOROFORMANILIDE,4-Chloroformanilide,N-(4-Chlorophenyl)formamide,8473,DTXSID00180795,O=CNc1ccc(Cl)cc1,"InChI=1S/C7H6ClNO/c8-6-1-3-7(4-2-6)9-5-10/h1-5H,(H,9,10)",LMLFHXMNNHGRRO-UHFFFAOYSA-N,?,,"HANSCH,C ET AL. (1995)",2.04
103968,2618-96-4,2618-96-4,[H]C1=C([H])C([H])=C(S(=O)(=O)N([H])S(=O)(=O)C2=C([H])C([H])=C([H])C([H])=C2[H])C([H])=C1[H],"BENZENESULFONAMIDE, N-(PHENYLSULFONYL)-","Benzenesulfonamide, N-(phenylsulfonyl)-",N-phenylsulfonylbenzenesulfonamide,8474,DTXSID0062557,O=S(=O)(NS(=O)(=O)c1ccccc1)c1ccccc1,"InChI=1S/C12H11NO4S2/c14-18(15,11-7-3-1-4-8-11)13-19(16,17)12-9-5-2-6-10-12/h1-10,13H",OVQABVAKPIYHIG-UHFFFAOYSA-N,?,,POMONA (1987),0.52
103969,2620-53-3,2620-53-3,[H]C1=C([H])C(OC(=O)N([H])C([H])([H])[H])=C([H])C([H])=C1Cl,N-METHYL-4-CHLOROPHENYLCARBAMATE,4-Chlorophenyl methylcarbamate,4-chlorophenyl methylcarbamate,8475,DTXSID0041511,CNC(=O)Oc1ccc(Cl)cc1,"InChI=1S/C8H8ClNO2/c1-10-8(11)12-7-4-2-6(9)3-5-7/h2-5H,1H3,(H,10,11)",WMMQJAQJAPXWDO-UHFFFAOYSA-N,?,,"HANSCH,C ET AL. (1995)",2.01
103972,2621-80-9,2621-80-9,[H]C1=C([H])C(C([H])([H])OC(=O)N([H])[H])=C([H])C([H])=C1Cl,P-CHLOROBENZYLCARBAMATE,4-Chlorophenylurethane,Ethyl N-(4-chlorophenyl)carbamate,8477,DTXSID00180851,NC(=O)OCc1ccc(Cl)cc1,"InChI=1S/C8H8ClNO2/c9-7-3-1-6(2-4-7)5-12-8(10)11/h1-4H,5H2,(H2,10,11)",HIIOEWGKFCWTJU-UHFFFAOYSA-N,?,,"HANSCH,C ET AL. (1995)",1.97
103973,2622-07-3,2622-07-3,[H]C([H])([H])C([H])([H])N(C([H])([H])C([H])([H])[H])P(=O)(N(C([H])([H])C([H])([H])[H])C([H])([H])C([H])([H])[H])N(C([H])([H])C([H])([H])[H])C([H])([H])C([H])([H])[H],"PHOSPHORIC TRIAMIDE, HEXAETHYL-",Hexaethylphosphoramide,N-bis(diethylamino)phosphoryl-N-ethylethanamine,8478,DTXSID60180857,CCN(CC)P(=O)(N(CC)CC)N(CC)CC,"InChI=1S/C12H30N3OP/c1-7-13(8-2)17(16,14(9-3)10-4)15(11-5)12-6/h7-12H2,1-6H3",ROZPNEGZBIUWBX-UHFFFAOYSA-N,?,,"DEBORD,J & LABADIE,M (1985)",2.53
103974,2622-26-6,2622-26-6,[H]OC1([H])C([H])([H])C([H])([H])N(C([H])([H])C([H])([H])C([H])([H])N2C3=C([H])C([H])=C([H])C([H])=C3SC3=C([H])C([H])=C(C#N)C([H])=C32)C([H])([H])C1([H])[H],PERICYAZINE,Periciazine,10-[3-(4-hydroxypiperidin-1-yl)propyl]-10H-phenothiazine-2-carbonitrile,8479,DTXSID5045910,N#Cc1cc2c(cc1)Sc1ccccc1N2CCCN1CCC(O)CC1,"InChI=1S/C21H23N3OS/c22-15-16-6-7-21-19(14-16)24(18-4-1-2-5-20(18)26-21)11-3-10-23-12-8-17(25)9-13-23/h1-2,4-7,14,17,25H,3,8-13H2",LUALIOATIOESLM-UHFFFAOYSA-N,?,,"HANSCH,C ET AL. (1995)",3.52
103976,2626-81-5,2626-81-5,[H]C1=C([H])C([H])=C(C(C([H])([H])[H])(C([H])([H])[H])C([H])([H])[H])C(OC(=O)N([H])C([H])([H])[H])=C1[H],N-ME-2-T-BUTYLPHENYLCARBAMATE,o-tert-Butylphenyl methylcarbamate,(2-tert-butylphenyl) N-methylcarbamate,8481,DTXSID80180894,CNC(=O)Oc1ccccc1C(C)(C)C,"InChI=1S/C12H17NO2/c1-12(2,3)9-7-5-6-8-10(9)15-11(14)13-4/h5-8H,1-4H3,(H,13,14)",MCJHCFNLHXLNJW-UHFFFAOYSA-N,?,,"HANSCH,C ET AL. (1995)",2.65
103977,2626-83-7,2626-83-7,[H]C1=C([H])C(C(C([H])([H])[H])(C([H])([H])[H])C([H])([H])[H])=C([H])C([H])=C1OC(=O)N([H])C([H])([H])[H],N-ME-4-T-BUTYLPHENYLCARBAMATE,p-(tert-butyl)-Phenyl-N-methylcarbamate,4-tert-butylphenyl methylcarbamate,8482,DTXSID0022195,CNC(=O)Oc1ccc(cc1)C(C)(C)C,"InChI=1S/C12H17NO2/c1-12(2,3)9-5-7-10(8-6-9)15-11(14)13-4/h5-8H,1-4H3,(H,13,14)",SQWINKDZQCVJNM-UHFFFAOYSA-N,?,,"HANSCH,C ET AL. (1995)",3.06
103978,2627-77-2,2627-77-2,[H]OC1=C([H])C([H])=C([H])C([H])=C1C(=O)N([H])C1=C([H])C([H])=C(Br)C([H])=C1[H],4'-BR SALICYLANILIDE,4'-Bromosalicylanilide,N-(4-bromophenyl)-2-hydroxybenzamide,8483,DTXSID80180899,Oc1ccccc1C(=O)Nc1ccc(Br)cc1,"InChI=1S/C13H10BrNO2/c14-9-5-7-10(8-6-9)15-13(17)11-3-1-2-4-12(11)16/h1-8,16H,(H,15,17)",DKQMTUHJJPFJRL-UHFFFAOYSA-N,?,,"TERADA,H ET AL. (1988)",4.51
103980,2629-72-3,2629-72-3,[H]OC([H])([H])C([H])([H])C([H])([H])C1=C([H])C([H])=NC([H])=C1[H],4-PYRIDINEPROPANOL,4-Pyridinepropanol,,8485,DTXSID9062564,OCCCc1cc[n]cc1,"InChI=1S/C8H11NO/c10-7-1-2-8-3-5-9-6-4-8/h3-6,10H,1-2,7H2",PZVZGDBCMQBRMA-UHFFFAOYSA-N,?,,"HANSCH,C ET AL. (1995)",0.58
103981,2631-30-3,2631-30-3,[H]C1=C([H])C(C([H])([H])C([H])([H])[H])=C([H])C([H])=C1OC(=O)N([H])C([H])([H])[H],N-METHYL-4-ETHYLPHENYLCARBAMATE,,,8486,DTXSID80876028,CCc1ccc(cc1)OC(=O)NC,"InChI=1S/C10H13NO2/c1-3-8-4-6-9(7-5-8)13-10(12)11-2/h4-7H,3H2,1-2H3,(H,11,12)",LPTHKTMCQQFAOH-UHFFFAOYSA-N,?,,"HANSCH,C ET AL. (1995)",2.23
103982,2631-37-0,2631-37-0,[H]C1=C(OC(=O)N([H])C([H])([H])[H])C([H])=C(C([H])(C([H])([H])[H])C([H])([H])[H])C([H])=C1C([H])([H])[H],3-I-PR-5-MEPHENYL-N-ME CARBAMATE,Promecarb,3-methyl-5-(propan-2-yl)phenyl methylcarbamate,8487,DTXSID4037617,Cc1cc(cc(c1)OC(=O)NC)C(C)C,"InChI=1S/C12H17NO2/c1-8(2)10-5-9(3)6-11(7-10)15-12(14)13-4/h5-8H,1-4H3,(H,13,14)",DTAPQAJKAFRNJB-UHFFFAOYSA-N,?,,"HANSCH,C ET AL. (1995)",3.1
103984,2631-40-5,2631-40-5,[H]C1=C([H])C([H])=C(C([H])(C([H])([H])[H])C([H])([H])[H])C(OC(=O)N([H])C([H])([H])[H])=C1[H],ISOPROCARB,Isoprocarb,2-(propan-2-yl)phenyl methylcarbamate,8489,DTXSID6042072,CNC(=O)Oc1ccccc1C(C)C,"InChI=1S/C11H15NO2/c1-8(2)9-6-4-5-7-10(9)14-11(13)12-3/h4-8H,1-3H3,(H,12,13)",QBSJMKIUCUGGNG-UHFFFAOYSA-N,?,,"HANSCH,C ET AL. (1995)",2.31
103985,2631-42-7,2631-42-7,[H]C1=C([H])C(OC(=O)N([H])C([H])([H])[H])=C(C([H])([H])C([H])([H])[H])C([H])=C1[H],N-METHYL-2-ETHYLPHENYLCARBAMATE,,,8490,DTXSID10876031,CCc1ccccc1OC(=O)NC,"InChI=1S/C10H13NO2/c1-3-8-6-4-5-7-9(8)13-10(12)11-2/h4-7H,3H2,1-2H3,(H,11,12)",RXUSKBWVHUZEAB-UHFFFAOYSA-N,?,,"HANSCH,C ET AL. (1995)",1.93
103986,2636-26-2,2636-26-2,[H]C1=C([H])C(OP(=S)(OC([H])([H])[H])OC([H])([H])[H])=C([H])C([H])=C1C#N,CYANOPHOS,Cyanophos,"O-(4-cyanophenyl) O,O-dimethyl phosphorothioate",8491,DTXSID0041806,COP(=S)(Oc1ccc(cc1)C#N)OC,"InChI=1S/C9H10NO3PS/c1-11-14(15,12-2)13-9-5-3-8(7-10)4-6-9/h3-6H,1-2H3",SCKHCCSZFPSHGR-UHFFFAOYSA-N,?,,"DEBRUIJN,J & HERMENS,J (1991)",2.71
103988,2642-71-9,2642-71-9,[H]C1=C([H])C([H])=C2C(=O)N(C([H])([H])SP(=S)(OC([H])([H])C([H])([H])[H])OC([H])([H])C([H])([H])[H])N=NC2=C1[H],AZINPHOS ETHYL,Azinphos-ethyl,"O,O-diethyl S-[(4-oxo-1,2,3-benzotriazin-3(4H)-yl)methyl] phosphorodithioate",8493,DTXSID5037498,CCOP(=S)(OCC)SCN1N=Nc2ccccc2C1=O,"InChI=1S/C12H16N3O3PS2/c1-3-17-19(20,18-4-2)21-9-15-12(16)10-7-5-6-8-11(10)13-14-15/h5-8H,3-4,9H2,1-2H3",RQVGAIADHNPSME-UHFFFAOYSA-N,?,,"HANSCH,C ET AL. (1995)",3.4
103989,2642-98-0,2642-98-0,[H]C1=C([H])C([H])=C2C(=C1[H])C1=C([H])C([H])=C3C([H])=C([H])C([H])=C([H])C3=C1C([H])=C2N([H])[H],6-AMINOCHRYSENE,6-Chrysenamine,chrysen-6-amine,8494,DTXSID70181017,Nc1cc2c3ccccc3ccc2c2ccccc21,"InChI=1S/C18H13N/c19-18-11-17-13-6-2-1-5-12(13)9-10-15(17)14-7-3-4-8-16(14)18/h1-11H,19H2",KIVUHCNVDWYUNP-UHFFFAOYSA-N,?,,"HANSCH,C ET AL. (1995)",4.99
103990,2644-96-4,2644-96-4,[H]C1=C([H])C([N+](=O)[O-])=C([H])C([H])=C1C(=O)N([H])C([H])([H])C(=O)OC([H])([H])[H],P-NITRO-METHYLHIPPURATE,,,8495,DTXSID30875889,COC(=O)CNC(=O)c1ccc(cc1)[N+]([O-])=O,"InChI=1S/C10H10N2O5/c1-17-9(13)6-11-10(14)7-2-4-8(5-3-7)12(15)16/h2-5H,6H2,1H3,(H,11,14)",XAELFDMNATUYGP-UHFFFAOYSA-N,?,,"HANSCH,C ET AL. (1995)",0.98
103993,2648-00-2,2648-00-2,[H]C1=C([H])C([H])=C(C2=NC([H])([H])C(=O)N([H])C3=C([H])C([H])=C(F)C([H])=C23)C([H])=C1[H],"1,4-BENZODIAZPIN-2-ONE,5-PH,7-F",N-desmethylflunitrazepam,"7-fluoro-5-phenyl-1,3-dihydro-1,4-benzodiazepin-2-one",8497,DTXSID50181070,O=C1CN=C(c2cc(F)ccc2N1)c1ccccc1,"InChI=1S/C15H11FN2O/c16-11-6-7-13-12(8-11)15(17-9-14(19)18-13)10-4-2-1-3-5-10/h1-8H,9H2,(H,18,19)",BHRKXOYRRFPATI-UHFFFAOYSA-N,?,,"HANSCH,C ET AL. (1995)",2.32
103994,2648-01-3,2648-01-3,[H]C1=C([H])C(F)=C(C2=NC([H])([H])C(=O)N([H])C3=C2C([H])=C([H])C([H])=C3[H])C([H])=C1[H],"1,4-BENZODIAZPIN-2-ONE,5-(2-F PH)",,,8498,DTXSID70877685,O=C1CN=C(c2ccccc2F)c2ccccc2N1,"InChI=1S/C15H11FN2O/c16-12-7-3-1-5-10(12)15-11-6-2-4-8-13(11)18-14(19)9-17-15/h1-8H,9H2,(H,18,19)",ZFYAQIQNROJRTO-UHFFFAOYSA-N,?,,"HANSCH,C ET AL. (1995)",2.38
103995,2652-77-9,2652-77-9,[H]C1=C([H])C([H])=C(N2C(=O)C([H])([H])C(=O)N2C2=C([H])C([H])=C([H])C([H])=C2[H])C([H])=C1[H],"2,5-PYRAZOLIDINDIONE,1,2-DIPHENYL",,,8499,DTXSID60877699,O=C1CC(=O)N(c2ccccc2)N1c1ccccc1,"InChI=1S/C15H12N2O2/c18-14-11-15(19)17(13-9-5-2-6-10-13)16(14)12-7-3-1-4-8-12/h1-10H,11H2",XDPKQGKEOCYMQC-UHFFFAOYSA-N,?,,"HANSCH,C ET AL. (1995)",1.45
103997,2655-14-3,2655-14-3,[H]C1=C(OC(=O)N([H])C([H])([H])[H])C([H])=C(C([H])([H])[H])C([H])=C1C([H])([H])[H],"N-ME-3,5-DIMETHYLPHENYL CARBAMATE",XMC,"3,5-dimethylphenyl methylcarbamate",8501,DTXSID7058042,CNC(=O)Oc1cc(C)cc(C)c1,"InChI=1S/C10H13NO2/c1-7-4-8(2)6-9(5-7)13-10(12)11-3/h4-6H,1-3H3,(H,11,12)",CVQODEWAPZVVBU-UHFFFAOYSA-N,?,,"HANSCH,C ET AL. (1995)",2.23
103998,2664-63-3,2664-63-3,[H]OC1=C([H])C([H])=C(SC2=C([H])C([H])=C(O[H])C([H])=C2[H])C([H])=C1[H],"PHENOL, 4,4'-THIOBIS-","4,4'-Thiodiphenol","4,4'-sulfanediyldiphenol",8502,DTXSID9047960,Oc1ccc(cc1)Sc1ccc(O)cc1,"InChI=1S/C12H10O2S/c13-9-1-5-11(6-2-9)15-12-7-3-10(14)4-8-12/h1-8,13-14H",VWGKEVWFBOUAND-UHFFFAOYSA-N,?,,"HANSCH,C ET AL. (1995)",3.34
103999,2668-24-8,2668-24-8,[H]OC1=C(OC([H])([H])[H])C([H])=C(Cl)C(Cl)=C1Cl,"4,5,6-TRICHLOROGUAIACOL","4,5,6-Trichloroguaiacol",C7H5Cl3O2,8503,DTXSID00858745,COc1cc(Cl)c(Cl)c(Cl)c1O,"InChI=1S/C7H5Cl3O2/c1-12-4-2-3(8)5(9)6(10)7(4)11/h2,11H,1H3",NIAJPNQTKGWEOI-UHFFFAOYSA-N,?,,"XIE,TM ET AL. (1984)",3.72
104001,2683-90-1,2683-90-1,[H]C1=NC2=NN([H])N=C2C(=O)N1[H],8-AZAHYPOXANTHINE,"7H-1,2,3-Triazolo[4,5-d]pyrimidin-7-one, 1,4-dihydro-",,8505,DTXSID1062590,O=C1NC=Nc2[n][nH][n]c21,"InChI=1S/C4H3N5O/c10-4-2-3(5-1-6-4)8-9-7-2/h1H,(H2,5,6,7,8,9,10)",OEEYCNOOAHGFHL-UHFFFAOYSA-N,?,,"HANSCH,C ET AL. (1995)",-1.97
104002,2686-99-9,2686-99-9,[H]C1=C(OC(=O)N([H])C([H])([H])[H])C([H])=C(C([H])([H])[H])C(C([H])([H])[H])=C1C([H])([H])[H],"N-ME-3,4,5-TRIMEPHENYL CARBAMATE","3,4,5-Trimethylphenyl methylcarbamate","3,4,5-trimethylphenyl methylcarbamate",8506,DTXSID1040322,CNC(=O)Oc1cc(C)c(C)c(C)c1,"InChI=1S/C11H15NO2/c1-7-5-10(14-11(13)12-4)6-8(2)9(7)3/h5-6H,1-4H3,(H,12,13)",AUQAUAIUNJIIEP-UHFFFAOYSA-N,?,,"HANSCH,C ET AL. (1995)",2.66
104003,2687-91-4,2687-91-4,[H]C([H])([H])C([H])([H])N1C(=O)C([H])([H])C([H])([H])C1([H])[H],"2-PYRROLIDINONE, 1-ETHYL-",1-Ethyl-2-pyrrolidinone,1-ethylpyrrolidin-2-one,8507,DTXSID3044413,CCN1CCCC1=O,"InChI=1S/C6H11NO/c1-2-7-5-3-4-6(7)8/h2-5H2,1H3",ZFPGARUNNKGOBB-UHFFFAOYSA-N,?,,"KIM,CK ET AL. (1993)",-0.04
104005,2688-84-8,2688-84-8,[H]C1=C([H])C([H])=C(OC2=C(N([H])[H])C([H])=C([H])C([H])=C2[H])C([H])=C1[H],O-PHENOXYANILINE,o-Phenoxyaniline,2-(phenoxy)aniline,8509,DTXSID6062593,Nc1ccccc1Oc1ccccc1,"InChI=1S/C12H11NO/c13-11-8-4-5-9-12(11)14-10-6-2-1-3-7-10/h1-9H,13H2",NMFFUUFPJJOWHK-UHFFFAOYSA-N,?,,"HANSCH,C ET AL. (1995)",2.46
104006,2689-07-8,2689-07-8,[H]C1=C([H])C([H])=C(OC2=C([H])C([H])=C([H])C([H])=C2Cl)C([H])=C1[H],2-Chlorodiphenyl ether,2-Chlorodiphenyl ether,1-chloro-2-(phenoxy)benzene,8510,DTXSID90181397,Clc1ccccc1Oc1ccccc1,InChI=1S/C12H9ClO/c13-11-8-4-5-9-12(11)14-10-6-2-1-3-7-10/h1-9H,IPBRZLMGGXHHMS-UHFFFAOYSA-N,?,,"KURZ,J & BALLSCHMITER,K (1999)",4.45
104007,2689-47-6,2689-47-6,[H]C1=C([H])C(C(=O)C([H])([H])[H])=C([H])C(OC(=O)N(C([H])([H])[H])C([H])([H])[H])=C1[H],3-ACETYLPHENYLDIMETHYLCARBAMATE,,,8511,DTXSID40876408,CC(=O)c1cc(ccc1)OC(=O)N(C)C,"InChI=1S/C11H13NO3/c1-8(13)9-5-4-6-10(7-9)15-11(14)12(2)3/h4-7H,1-3H3",DSKANQFCDOSIHF-UHFFFAOYSA-N,?,,"HANSCH,C ET AL. (1995)",1.18
104009,2693-46-1,2693-46-1,[H]C1=C([H])C2=C(C([H])=C1[H])C1=C([H])C([H])=C(N([H])[H])C3=C1C2=C([H])C([H])=C3[H],3-FLUORANTHENAMINE,3-Aminofluoranthene,fluoranthen-3-amine,8513,DTXSID2049260,Nc1ccc2c3c1cccc3-c1ccccc1-2,"InChI=1S/C16H11N/c17-15-9-8-13-11-5-2-1-4-10(11)12-6-3-7-14(15)16(12)13/h1-9H,17H2",VHGJAFIHUSTRGB-UHFFFAOYSA-N,?,,"DEBNATH,AK ET AL. (1992)",4.2
104010,2696-84-6,2696-84-6,[H]C1=C([H])C(C([H])([H])C([H])([H])C([H])([H])[H])=C([H])C([H])=C1N([H])[H],"BENZENAMINE, 4-PROPYL-",4-Propylaniline,4-propylaniline,8514,DTXSID5048180,CCCc1ccc(N)cc1,"InChI=1S/C9H13N/c1-2-3-8-4-6-9(10)7-5-8/h4-7H,2-3,10H2,1H3",OAPDPORYXWQVJE-UHFFFAOYSA-N,?,,SANGSTER (1993),2.4
104011,2700-22-3,2700-22-3,[H]C(=C(C#N)C#N)C1=C([H])C([H])=C([H])C([H])=C1[H],"MALONONITRILE, BENZAL","Malononitrile, benzylidene-",2-(phenylmethylidene)propanedinitrile,8515,DTXSID10181490,N#CC(=Cc1ccccc1)C#N,InChI=1S/C10H6N2/c11-7-10(8-12)6-9-4-2-1-3-5-9/h1-6H,WAVNYPVYNSIHNC-UHFFFAOYSA-N,?,,"HANSCH,C ET AL. (1995)",2.18
104014,2706-56-1,2706-56-1,[H]C1=NC(C([H])([H])C([H])([H])N([H])[H])=C([H])C([H])=C1[H],3-PYRIDINE ETHANEAMINE,2-(2-Aminoethyl)pyridine,2-(pyridin-2-yl)ethanamine,8517,DTXSID5022196,NCCc1cccc[n]1,"InChI=1S/C7H10N2/c8-5-4-7-3-1-2-6-9-7/h1-3,6H,4-5,8H2",XPQIPUZPSLAZDV-UHFFFAOYSA-N,?,,"HANSCH,C ET AL. (1995)",0.08
104015,2709-56-0|53772-82-0|53772-85-3,2709-56-0|53772-82-0|53772-85-3,[H]OC([H])([H])C([H])([H])N1C([H])([H])C([H])([H])N(C([H])([H])C([H])([H])/C([H])=C2\C3=C([H])C([H])=C([H])C([H])=C3SC3=C([H])C([H])=C(C(F)(F)F)C([H])=C32)C([H])([H])C1([H])[H],"FLUPENTIXOL, 1-PIPERAZINEETHANOL, 4-[3-[2-(TRIFLUOROMETHYL)-9",Flupenthixol,2-(4-{(3Z)-3-[2-(trifluoromethyl)-9H-thioxanthen-9-ylidene]propyl}piperazin-1-yl)ethanol,8518|11913|11914,DTXSID3058749|DTXSID9046310|DTXSID50110027,OCCN1CCN(CCC=C2c3ccccc3Sc3ccc(cc32)C(F)(F)F)CC1,"InChI=1S/C23H25F3N2OS/c24-23(25,26)17-7-8-22-20(16-17)18(19-4-1-2-6-21(19)30-22)5-3-9-27-10-12-28(13-11-27)14-15-29/h1-2,4-8,16,29H,3,9-15H2/b18-5+",NJMYODHXAKYRHW-BLLMUTORSA-N,?,,"HANSCH,C ET AL. (1995)",4.51
104016,2715-70-0,2715-70-0,[H]C1=NC(N([H])[H])=C2N=C([H])N(C([H])([H])C([H])([H])C([H])([H])C([H])([H])[H])C2=N1,9-BUTYL ADENINE,"9H-Purin-6-amine, 9-butyl- (9CI)",9-butylpurin-6-amine,8519,DTXSID10181617,CCCC[n]1c[n]c2c(N)[n]c[n]c12,"InChI=1S/C9H13N5/c1-2-3-4-14-6-13-7-8(10)11-5-12-9(7)14/h5-6H,2-4H2,1H3,(H2,10,11,12)",BKXMJMZKKNIYRD-UHFFFAOYSA-N,?,,"HANSCH,C ET AL. (1995)",1.25
104018,2719-21-3,2719-21-3,[H]C1=C([H])C(N([H])C(=O)C([H])([H])[H])=C([H])C([H])=C1C(=O)C([H])([H])[H],"ACETAMIDE, N-(4-ACETYLPHENYL)-",N-(p-Acetylphenyl)acetamide,N-(4-acetylphenyl)acetamide,8521,DTXSID10181657,CC(=O)c1ccc(cc1)NC(C)=O,"InChI=1S/C10H11NO2/c1-7(12)9-3-5-10(6-4-9)11-8(2)13/h3-6H,1-2H3,(H,11,13)",WECHHDJTILFYQT-UHFFFAOYSA-N,?,,POMONA (1987),1.24
104019,2719-23-5,2719-23-5,[H]C1=C([H])SC(N([H])C(=O)C([H])([H])[H])=N1,"ACETAMIDE, N-2-THIAZOLYL-","Acetamide, N-2-thiazolyl-","N-(1,3-thiazol-2-yl)acetamide",8522,DTXSID3062607,CC(=O)Nc1[n]cc[s]1,"InChI=1S/C5H6N2OS/c1-4(8)7-5-6-2-3-9-5/h2-3H,1H3,(H,6,7,8)",WXPLRSVMGRAIGW-UHFFFAOYSA-N,?,,"HANSCH,C ET AL. (1995)",0.76
104020,2719-61-1,2719-61-1,[H]C1=C([H])C([H])=C(C([H])(C([H])([H])[H])C([H])([H])C([H])([H])C([H])([H])C([H])([H])C([H])([H])C([H])([H])C([H])([H])C([H])([H])C([H])([H])C([H])([H])[H])C([H])=C1[H],"BENZENE, (1-METHYLUNDECYL)-",,,8523,DTXSID50875104,CCCCCCCCCCC(C)c1ccccc1,"InChI=1S/C18H30/c1-3-4-5-6-7-8-9-11-14-17(2)18-15-12-10-13-16-18/h10,12-13,15-17H,3-9,11,14H2,1-2H3",VRPRIAVYSREHAN-UHFFFAOYSA-N,?,,"SHERBLOM,PM ET AL. (1992)",8.19