ChemID,source_casrn,CAS,SMILES,NAME,preferred_name,iupac,MPID,dsstox_substance_id,Canonical_QSARr,InChI_Code_QSARr,InChI Key_QSARr,Salt_Solvent,Salt_Solvent_ID,Kow Reference,LogP
100949,101-77-9,101-77-9,[H]C1=C([H])C(C([H])([H])C2=C([H])C([H])=C(N([H])[H])C([H])=C2[H])=C([H])C([H])=C1N([H])[H],DI-(P-AMINOPHENYL)METHANE,"4,4'-Methylenedianiline",C13H14N2,5593,DTXSID6022422,Nc1ccc(Cc2ccc(N)cc2)cc1,"InChI=1S/C13H14N2/c14-12-5-1-10(2-6-12)9-11-3-7-13(15)8-4-11/h1-8H,9,14-15H2",YBRVSVVVWCFQMG-UHFFFAOYSA-N,?,,"HANSCH,C ET AL. (1995)",1.59
100951,101-81-5,101-81-5,[H]C1=C([H])C([H])=C(C([H])([H])C2=C([H])C([H])=C([H])C([H])=C2[H])C([H])=C1[H],"BENZENE, 1,1'-METHYLENEBIS-",Diphenylmethane,"1,1'-methanediyldibenzene",5595,DTXSID1041891,C(c1ccccc1)c1ccccc1,"InChI=1S/C13H12/c1-3-7-12(8-4-1)11-13-9-5-2-6-10-13/h1-10H,11H2",CZZYITDELCSZES-UHFFFAOYSA-N,?,,"HANSCH,C ET AL. (1995)",4.14
100952,101-84-8,101-84-8,[H]C1=C([H])C([H])=C(OC2=C([H])C([H])=C([H])C([H])=C2[H])C([H])=C1[H],DIPHENYL ETHER,Diphenyl oxide,diphenyl ether,5596,DTXSID9021847,c1ccccc1Oc1ccccc1,InChI=1S/C12H10O/c1-3-7-11(8-4-1)13-12-9-5-2-6-10-12/h1-10H,USIUVYZYUHIAEV-UHFFFAOYSA-N,?,,"HANSCH,C ET AL. (1995)",4.21
100953,101-97-3,101-97-3,[H]C1=C([H])C([H])=C(C([H])([H])C(=O)OC([H])([H])C([H])([H])[H])C([H])=C1[H],"BENZENEACETIC ACID, ETHYL ESTER",Ethyl phenylacetate,ethyl phenylacetate,5597,DTXSID6044353,CCOC(=O)Cc1ccccc1,"InChI=1S/C10H12O2/c1-2-12-10(11)8-9-6-4-3-5-7-9/h3-7H,2,8H2,1H3",DULCUDSUACXJJC-UHFFFAOYSA-N,?,,"HANSCH,C ET AL. (1995)",2.28
100955,102-03-4,102-03-4,[H]C1=C([H])C([H])=C(N([H])C(=O)N([H])C(=O)C([H])([H])[H])C([H])=C1[H],"ACETAMIDE, N-[(PHENYLAMINO)CARBONYL]-",1-Acetyl-3-phenylurea,N-(phenylcarbamoyl)acetamide,5599,DTXSID50144509,CC(=O)NC(=O)Nc1ccccc1,"InChI=1S/C9H10N2O2/c1-7(12)10-9(13)11-8-5-3-2-4-6-8/h2-6H,1H3,(H2,10,11,12,13)",RUPVBKFFZNPEPS-UHFFFAOYSA-N,?,,"SOTOMATSU,T ET AL. (1987)",1.6
100956,102-07-8,102-07-8,[H]C1=C([H])C([H])=C(N([H])C(=O)N([H])C2=C([H])C([H])=C([H])C([H])=C2[H])C([H])=C1[H],"DIPHENYLUREA, SYM",Diphenylurea,"1,3-diphenylurea",5600,DTXSID2025183,O=C(Nc1ccccc1)Nc1ccccc1,"InChI=1S/C13H12N2O/c16-13(14-11-7-3-1-4-8-11)15-12-9-5-2-6-10-12/h1-10H,(H2,14,15,16)",GWEHVDNNLFDJLR-UHFFFAOYSA-N,?,,"HANSCH,C ET AL. (1995)",3.0
100957,102-09-0,102-09-0,[H]C1=C([H])C([H])=C(OC(=O)OC2=C([H])C([H])=C([H])C([H])=C2[H])C([H])=C1[H],"CARBONIC ACID, DIPHENYL ESTER",Diphenylcarbonate,diphenyl carbonate,5601,DTXSID3020540,O=C(Oc1ccccc1)Oc1ccccc1,InChI=1S/C13H10O3/c14-13(15-11-7-3-1-4-8-11)16-12-9-5-2-6-10-12/h1-10H,ROORDVPLFPIABK-UHFFFAOYSA-N,?,,"HANSCH,C ET AL. (1995)",3.28
100959,102-32-9,102-32-9,[H]OC(=O)C([H])([H])C1=C([H])C([H])=C(O[H])C(O[H])=C1[H],"3,4-DIHYDROXYPHENYLACETIC ACID","3,4-Dihydroxyphenylacetic acid","2-(3,4-DIHYDROXYPHENYL)ACETIC ACID",5603,DTXSID9074430,Oc1cc(CC(O)=O)ccc1O,"InChI=1S/C8H8O4/c9-6-2-1-5(3-7(6)10)4-8(11)12/h1-3,9-10H,4H2,(H,11,12)",CFFZDZCDUFSOFZ-UHFFFAOYSA-N,?,,SANGSTER (1994),0.98
100960,102-37-4,102-37-4,[H]OC1=C([H])C([H])=C(/C([H])=C(\[H])C(=O)OC([H])([H])C([H])([H])[H])C([H])=C1O[H],"ETHYL CINNAMATE,3,4-DIHYDROXY",,,5604,DTXSID70876375,CCOC(=O)C=Cc1ccc(O)c(O)c1,"InChI=1S/C11H12O4/c1-2-15-11(14)6-4-8-3-5-9(12)10(13)7-8/h3-7,12-13H,2H2,1H3/b6-4+",WDKYDMULARNCIS-GQCTYLIASA-N,?,,"HANSCH,C ET AL. (1995)",2.56
100961,102-38-5,102-38-5,[H]C(=O)N([H])C1=C([H])C([N+](=O)[O-])=C([H])C([H])=C1[H],3-NITROFORMANILIDE,3-Nitroformanilide,C7H6N2O3,5605,DTXSID90344465,[O-][N+](=O)c1cc(ccc1)NC=O,"InChI=1S/C7H6N2O3/c10-5-8-6-2-1-3-7(4-6)9(11)12/h1-5H,(H,8,10)",QCDUUALALDXTAD-UHFFFAOYSA-N,?,,"HANSCH,C ET AL. (1995)",1.4
100963,102-56-7,102-56-7,[H]C1=C(OC([H])([H])[H])C([H])=C(N([H])[H])C(OC([H])([H])[H])=C1[H],"2,5-DIMETHOXYANILINE","Benzenamine, 2,5-dimethoxy-","2,5-Dimethoxyaniline",5607,DTXSID4059257,COc1ccc(cc1N)OC,"InChI=1S/C8H11NO2/c1-10-6-3-4-8(11-2)7(9)5-6/h3-5H,9H2,1-2H3",NAZDVUBIEPVUKE-UHFFFAOYSA-N,?,,"HANSCH,C ET AL. (1995)",1.2
100964,102-69-2,102-69-2,[H]C([H])([H])C([H])([H])C([H])([H])N(C([H])([H])C([H])([H])C([H])([H])[H])C([H])([H])C([H])([H])C([H])([H])[H],TRIPROPYLAMINE,Tripropylamine,"N,N-dipropylpropan-1-amine",5608,DTXSID9021849,CCCN(CCC)CCC,"InChI=1S/C9H21N/c1-4-7-10(8-5-2)9-6-3/h4-9H2,1-3H3",YFTHZRPMJXBUME-UHFFFAOYSA-N,?,,"HANSCH,C ET AL. (1995)",2.79
100965,102-70-5,102-70-5,[H]C([H])=C([H])C([H])([H])N(C([H])([H])C([H])=C([H])[H])C([H])([H])C([H])=C([H])[H],TRIALLYLAMINE,Triallylamine,"N,N-di(prop-2-en-1-yl)prop-2-en-1-amine",5609,DTXSID5026174,C=CCN(CC=C)CC=C,"InChI=1S/C9H15N/c1-4-7-10(8-5-2)9-6-3/h4-6H,1-3,7-9H2",VPYJNCGUESNPMV-UHFFFAOYSA-N,?,,"HANSCH,C ET AL. (1995)",2.59
100967,102-76-1,102-76-1,[H]C([H])([H])C(=O)OC([H])([H])C([H])(OC(=O)C([H])([H])[H])C([H])([H])OC(=O)C([H])([H])[H],TRIACETIN,Triacetin,"propane-1,2,3-triyl triacetate",5611,DTXSID3026691,CC(=O)OC(COC(C)=O)COC(C)=O,"InChI=1S/C9H14O6/c1-6(10)13-4-9(15-8(3)12)5-14-7(2)11/h9H,4-5H2,1-3H3",URAYPUMNDPQOKB-UHFFFAOYSA-N,?,,"HANSCH,C ET AL. (1995)",0.25
100968,102-93-2,102-93-2,[H]C1=C([H])C([H])=C(C([H])([H])C([H])([H])C(=O)N([H])[H])C([H])=C1[H],"PROPIONAMIDE, G-PHENYL",beta-Phenylpropionamide,3-Phenylpropanamide,5612,DTXSID80144517,NC(=O)CCc1ccccc1,"InChI=1S/C9H11NO/c10-9(11)7-6-8-4-2-1-3-5-8/h1-5H,6-7H2,(H2,10,11)",VYIBCOSBNVFEIW-UHFFFAOYSA-N,?,,"HANSCH,C ET AL. (1995)",0.91
100969,102-96-5,102-96-5,[H]C1=C([H])C([H])=C(/C([H])=C(\[H])[N+](=O)[O-])C([H])=C1[H],BETA-NITROSTYRENE,beta-Nitrostyrene,(2-nitroethenyl)benzene,5613,DTXSID0025789,[O-][N+](=O)C=Cc1ccccc1,InChI=1S/C8H7NO2/c10-9(11)7-6-8-4-2-1-3-5-8/h1-7H/b7-6+,PIAOLBVUVDXHHL-VOTSOKGWSA-N,?,,"HANSCH,C ET AL. (1995)",2.11
100971,103-01-5,103-01-5,[H]OC(=O)C([H])([H])N([H])C1=C([H])C([H])=C([H])C([H])=C1[H],N-PHENYLGLYCINE,N-Phenylglycine,N-phenylglycine,5615,DTXSID2047016,OC(=O)CNc1ccccc1,"InChI=1S/C8H9NO2/c10-8(11)6-9-7-4-2-1-3-5-7/h1-5,9H,6H2,(H,10,11)",NPKSPKHJBVJUKB-UHFFFAOYSA-N,?,,"HANSCH,C ET AL. (1995)",0.62
100972,103-03-7,103-03-7,[H]C1=C([H])C([H])=C(N([H])N([H])C(=O)N([H])[H])C([H])=C1[H],"HYDRAZINECARBOXAMIDE, 2-PHENYL-",Phenicarbazide,2-phenylhydrazinecarboxamide,5616,DTXSID9020245,NC(=O)NNc1ccccc1,"InChI=1S/C7H9N3O/c8-7(11)10-9-6-4-2-1-3-5-6/h1-5,9H,(H3,8,10,11)",AVKHCKXGKPAGEI-UHFFFAOYSA-N,?,,"HANSCH,C ET AL. (1995)",0.13
100973,103-04-8,103-04-8,[H]OC(=O)C([H])([H])SC1=C([H])C([H])=C([H])C([H])=C1[H],S-PHENYLMERCAPTOACETIC ACID,(Phenylthio)acetic acid,2-phenylsulfanylacetic acid,5617,DTXSID4074431,OC(=O)CSc1ccccc1,"InChI=1S/C8H8O2S/c9-8(10)6-11-7-4-2-1-3-5-7/h1-5H,6H2,(H,9,10)",MOTOSAGBNXXRRE-UHFFFAOYSA-N,?,,"HANSCH,C ET AL. (1995)",1.88
100975,103-26-4,103-26-4,[H]C1=C([H])C([H])=C(/C([H])=C(\[H])C(=O)OC([H])([H])[H])C([H])=C1[H],"CINNAMIC ACID, METHYL ESTER",Methyl cinnamate,methyl 3-phenylprop-2-enoate,5619,DTXSID6042151,COC(=O)C=Cc1ccccc1,"InChI=1S/C10H10O2/c1-12-10(11)8-7-9-5-3-2-4-6-9/h2-8H,1H3/b8-7+",CCRCUPLGCSFEDV-BQYQJAHWSA-N,?,,"HANSCH,C ET AL. (1995)",2.62
100976,103-29-7,103-29-7,[H]C1=C([H])C([H])=C(C([H])([H])C([H])([H])C2=C([H])C([H])=C([H])C([H])=C2[H])C([H])=C1[H],BIBENZYL,Bibenzyl,"1,1'-ethane-1,2-diyldibenzene",5620,DTXSID8041668,C(Cc1ccccc1)c1ccccc1,"InChI=1S/C14H14/c1-3-7-13(8-4-1)11-12-14-9-5-2-6-10-14/h1-10H,11-12H2",QWUWMCYKGHVNAV-UHFFFAOYSA-N,?,,"HANSCH,C ET AL. (1995)",4.79
100977,103-30-0|588-59-0,103-30-0|588-59-0,[H]C1=C([H])C([H])=C(/C([H])=C(\[H])C2=C([H])C([H])=C([H])C([H])=C2[H])C([H])=C1[H],"STILBENE (TRANS), STILBENE",trans-Stilbene,"1,1'-(E)-ethene-1,2-diyldibenzene",5621|6970,DTXSID4026050|DTXSID6060424,c1ccccc1C=Cc1ccccc1,InChI=1S/C14H12/c1-3-7-13(8-4-1)11-12-14-9-5-2-6-10-14/h1-12H/b12-11+,PJANXHGTPQOBST-VAWYXSNFSA-N,?,,"HANSCH,C ET AL. (1995)",4.81
100979,103-33-3,103-33-3,[H]C1=C([H])C([H])=C(/N=N/C2=C([H])C([H])=C([H])C([H])=C2[H])C([H])=C1[H],AZOBENZENE,Azobenzene,diphenyldiazene,5623,DTXSID8020123,c1ccccc1N=Nc1ccccc1,InChI=1S/C12H10N2/c1-3-7-11(8-4-1)13-14-12-9-5-2-6-10-12/h1-10H/b14-13+,DMLAVOWQYNRWNQ-BUHFOSPRSA-N,?,,"HANSCH,C ET AL. (1995)",3.82
100980,103-36-6,103-36-6,[H]C1=C([H])C([H])=C(/C([H])=C(\[H])C(=O)OC([H])([H])C([H])([H])[H])C([H])=C1[H],"CINNAMIC ACID, ETHYL ESTER",Ethyl cinnamate,ethyl 3-phenylprop-2-enoate,5624,DTXSID9022520,CCOC(=O)C=Cc1ccccc1,"InChI=1S/C11H12O2/c1-2-13-11(12)9-8-10-6-4-3-5-7-10/h3-9H,2H2,1H3/b9-8+",KBEBGUQPQBELIU-CMDGGOBGSA-N,?,,"HANSCH,C ET AL. (1995)",2.99
100981,103-38-8,103-38-8,[H]C1=C([H])C([H])=C(C([H])([H])OC(=O)C([H])([H])C([H])(C([H])([H])[H])C([H])([H])[H])C([H])=C1[H],"BUTANOIC ACID, 3-METHYL-, PHENYLMETHYL ESTER",Benzyl 3-methylbutanoate,benzyl 3-methylbutanoate,5625,DTXSID1047603,CC(C)CC(=O)OCc1ccccc1,"InChI=1S/C12H16O2/c1-10(2)8-12(13)14-9-11-6-4-3-5-7-11/h3-7,10H,8-9H2,1-2H3",HVJKZICIMIWFCP-UHFFFAOYSA-N,?,,"YANG,H ET AL. (1987)",3.26
100983,103-46-8,103-46-8,[H]OC(=O)C([H])([H])SC([H])([H])C1=C([H])C([H])=C([H])C([H])=C1[H],S-BENZYLMERCAPTOACETIC ACID,"Acetic acid, [(phenylmethyl)thio]-",2-(phenylmethylsulfanyl)acetic acid,5627,DTXSID2059273,OC(=O)CSCc1ccccc1,"InChI=1S/C9H10O2S/c10-9(11)7-12-6-8-4-2-1-3-5-8/h1-5H,6-7H2,(H,10,11)",AWLVTQRRKPBQEQ-UHFFFAOYSA-N,?,,"HANSCH,C ET AL. (1995)",2.1
100984,103-49-1,103-49-1,[H]C1=C([H])C([H])=C(C([H])([H])N([H])C([H])([H])C2=C([H])C([H])=C([H])C([H])=C2[H])C([H])=C1[H],DIBENZYL AMINE,Dibenzylamine,N-benzyl-1-phenylmethanamine,5628,DTXSID6044355,C(NCc1ccccc1)c1ccccc1,"InChI=1S/C14H15N/c1-3-7-13(8-4-1)11-15-12-14-9-5-2-6-10-14/h1-10,15H,11-12H2",BWLUMTFWVZZZND-UHFFFAOYSA-N,?,,BIOBYTE (1995),2.67
100985,103-50-4,103-50-4,[H]C1=C([H])C([H])=C(C([H])([H])OC([H])([H])C2=C([H])C([H])=C([H])C([H])=C2[H])C([H])=C1[H],DIBENZYL ETHER,Dibenzyl ether,C14H14O,5629,DTXSID5025819,C(OCc1ccccc1)c1ccccc1,"InChI=1S/C14H14O/c1-3-7-13(8-4-1)11-15-12-14-9-5-2-6-10-14/h1-10H,11-12H2",MHDVGSVTJDSBDK-UHFFFAOYSA-N,?,,"HANSCH,C ET AL. (1995)",3.31
100987,103-65-1,103-65-1,[H]C1=C([H])C([H])=C(C([H])([H])C([H])([H])C([H])([H])[H])C([H])=C1[H],N-PROPYLBENZENE,Propylbenzene,propylbenzene,5631,DTXSID3042219,CCCc1ccccc1,"InChI=1S/C9H12/c1-2-6-9-7-4-3-5-8-9/h3-5,7-8H,2,6H2,1H3",ODLMAHJVESYWTB-UHFFFAOYSA-N,?,,SANGSTER (1994),3.69
100988,103-67-3,103-67-3,[H]C1=C([H])C([H])=C(C([H])([H])N([H])C([H])([H])[H])C([H])=C1[H],N-METHYLBENZYLAMINE,N-Methylbenzylamine,N-methyl-1-phenylmethanamine,5632,DTXSID9048439,CNCc1ccccc1,"InChI=1S/C8H11N/c1-9-7-8-5-3-2-4-6-8/h2-6,9H,7H2,1H3",RIWRFSMVIUAEBX-UHFFFAOYSA-N,?,,"HANSCH,C ET AL. (1995)",1.52
100989,103-69-5,103-69-5,[H]C1=C([H])C([H])=C(N([H])C([H])([H])C([H])([H])[H])C([H])=C1[H],N-ETHYLANILINE,N-Ethylaniline,N-ethylaniline,5633,DTXSID1025271,CCNc1ccccc1,"InChI=1S/C8H11N/c1-2-9-8-6-4-3-5-7-8/h3-7,9H,2H2,1H3",OJGMBLNIHDZDGS-UHFFFAOYSA-N,?,,"HANSCH,C ET AL. (1995)",2.16
100991,103-72-0,103-72-0,[H]C1=C([H])C([H])=C(N=C=S)C([H])=C1[H],PHENYLISOTHIOCYANATE,Phenyl isothiocyanate,isothiocyanatobenzene,5635,DTXSID0021129,S=C=Nc1ccccc1,InChI=1S/C7H5NS/c9-6-8-7-4-2-1-3-5-7/h1-5H,QKFJKGMPGYROCL-UHFFFAOYSA-N,?,,"HANSCH,C ET AL. (1995)",3.28
100992,103-73-1,103-73-1,[H]C1=C([H])C([H])=C(OC([H])([H])C([H])([H])[H])C([H])=C1[H],ETHOXYBENZENE,"Benzene, ethoxy-",Ethoxybenzene,5636,DTXSID7059278,CCOc1ccccc1,"InChI=1S/C8H10O/c1-2-9-8-6-4-3-5-7-8/h3-7H,2H2,1H3",DLRJIFUOBPOJNS-UHFFFAOYSA-N,?,,"HANSCH,C ET AL. (1995)",2.51
100993,103-74-2,103-74-2,[H]OC([H])([H])C([H])([H])C1=C([H])C([H])=C([H])C([H])=N1,2-PYRIDINEETHANOL,2-(Pyridin-2-yl)ethanol,2-(pyridin-2-yl)ethanol,5637,DTXSID2044767,OCCc1cccc[n]1,"InChI=1S/C7H9NO/c9-6-4-7-3-1-2-5-8-7/h1-3,5,9H,4,6H2",BXGYBSJAZFGIPX-UHFFFAOYSA-N,?,,"HANSCH,C ET AL. (1995)",0.12
100995,103-81-1,103-81-1,[H]C1=C([H])C([H])=C(C([H])([H])C(=O)N([H])[H])C([H])=C1[H],PHENYLACETAMIDE,Benzeneacetamide,2-Phenylacetamide,5639,DTXSID1059282,NC(=O)Cc1ccccc1,"InChI=1S/C8H9NO/c9-8(10)6-7-4-2-1-3-5-7/h1-5H,6H2,(H2,9,10)",LSBDFXRDZJMBSC-UHFFFAOYSA-N,?,,"HANSCH,C ET AL. (1995)",0.45
100996,103-82-2,103-82-2,[H]OC(=O)C([H])([H])C1=C([H])C([H])=C([H])C([H])=C1[H],PHENYLACETIC ACID,Phenylacetic acid,phenylacetic acid,5640,DTXSID2021656,OC(=O)Cc1ccccc1,"InChI=1S/C8H8O2/c9-8(10)6-7-4-2-1-3-5-7/h1-5H,6H2,(H,9,10)",WLJVXDMOQOGPHL-UHFFFAOYSA-N,?,,"HANSCH,C ET AL. (1995)",1.41
100997,103-83-3,103-83-3,[H]C1=C([H])C([H])=C(C([H])([H])N(C([H])([H])[H])C([H])([H])[H])C([H])=C1[H],"N,N-DIMETHYLBENZYLAMINE","N,N-Dimethylbenzylamine","N,N-dimethyl-1-phenylmethanamine",5641,DTXSID8021854,CN(C)Cc1ccccc1,"InChI=1S/C9H13N/c1-10(2)8-9-6-4-3-5-7-9/h3-7H,8H2,1-2H3",XXBDWLFCJWSEKW-UHFFFAOYSA-N,?,,"HANSCH,C ET AL. (1995)",1.98
100999,103-85-5,103-85-5,[H]C1=C([H])C([H])=C(N([H])C(=S)N([H])[H])C([H])=C1[H],N-PHENYLTHIOUREA,1-Phenyl-2-thiourea,1-phenylthiourea,5643,DTXSID9021134,NC(=S)Nc1ccccc1,"InChI=1S/C7H8N2S/c8-7(10)9-6-4-2-1-3-5-6/h1-5H,(H3,8,9,10)",FULZLIGZKMKICU-UHFFFAOYSA-N,?,,"GOVERS,H ET AL. (1986)",0.71
101000,103-88-8,103-88-8,[H]C1=C([H])C(N([H])C(=O)C([H])([H])[H])=C([H])C([H])=C1Br,4-BROMOACETANILIDE,"Acetamide, N-(4-bromophenyl)-",N-(4-bromophenyl)acetamide,5644,DTXSID6059283,CC(=O)Nc1ccc(Br)cc1,"InChI=1S/C8H8BrNO/c1-6(11)10-8-4-2-7(9)3-5-8/h2-5H,1H3,(H,10,11)",MSLICLMCQYQNPK-UHFFFAOYSA-N,?,,"HANSCH,C ET AL. (1995)",2.29
101001,103-89-9,103-89-9,[H]C1=C([H])C(C([H])([H])[H])=C([H])C([H])=C1N([H])C(=O)C([H])([H])[H],4-METHYLACETANILIDE,N-Acetyl-p-toluidine,N-(4-methylphenyl)acetamide,5645,DTXSID6024414,Cc1ccc(cc1)NC(C)=O,"InChI=1S/C9H11NO/c1-7-3-5-9(6-4-7)10-8(2)11/h3-6H,1-2H3,(H,10,11)",YICAMJWHIUMFDI-UHFFFAOYSA-N,?,,"NAKAGAWA,Y ET AL. (1992)",1.7
101003,104-01-8,104-01-8,[H]OC(=O)C([H])([H])C1=C([H])C([H])=C(OC([H])([H])[H])C([H])=C1[H],P-METHOXYPHENYLACETIC ACID,"Benzeneacetic acid, 4-methoxy-",2-(4-methoxyphenyl)acetic acid,5647,DTXSID1059288,COc1ccc(CC(O)=O)cc1,"InChI=1S/C9H10O3/c1-12-8-4-2-7(3-5-8)6-9(10)11/h2-5H,6H2,1H3,(H,10,11)",NRPFNQUDKRYCNX-UHFFFAOYSA-N,?,,"HANSCH,C ET AL. (1995)",1.42
101004,104-03-0,104-03-0,[H]OC(=O)C([H])([H])C1=C([H])C([H])=C([N+](=O)[O-])C([H])=C1[H],P-NITROPHENYLACETIC ACID,4-Nitrophenylacetic acid,2-(4-NITROPHENYL)ACETIC ACID,5648,DTXSID6059289,[O-][N+](=O)c1ccc(CC(O)=O)cc1,"InChI=1S/C8H7NO4/c10-8(11)5-6-1-3-7(4-2-6)9(12)13/h1-4H,5H2,(H,10,11)",YBADLXQNJCMBKR-UHFFFAOYSA-N,?,,"HANSCH,C ET AL. (1995)",1.39
101005,104-04-1,104-04-1,[H]C1=C([H])C([N+](=O)[O-])=C([H])C([H])=C1N([H])C(=O)C([H])([H])[H],4-NITROACETANILIDE,"Acetamide, N-(4-nitrophenyl)-",N-(4-Nitrophenyl)acetamide,5649,DTXSID5059290,CC(=O)Nc1ccc(cc1)[N+]([O-])=O,"InChI=1S/C8H8N2O3/c1-6(11)9-7-2-4-8(5-3-7)10(12)13/h2-5H,1H3,(H,9,11)",NQRLPDFELNCFHW-UHFFFAOYSA-N,?,,"HANSCH,C ET AL. (1995)",1.66
101007,104-13-2,104-13-2,[H]C1=C([H])C(C([H])([H])C([H])([H])C([H])([H])C([H])([H])[H])=C([H])C([H])=C1N([H])[H],"BENZENAMINE, 4-BUTYL-",4-Butylaniline,4-butylaniline,5651,DTXSID8021856,CCCCc1ccc(N)cc1,"InChI=1S/C10H15N/c1-2-3-4-9-5-7-10(11)8-6-9/h5-8H,2-4,11H2,1H3",OGIQUQKNJJTLSZ-UHFFFAOYSA-N,?,,"MARTIN-VILLODRE,A ET AL. (1986)",3.05
101008,104-14-3,104-14-3,[H]OC1=C([H])C([H])=C(C([H])(O[H])C([H])([H])N([H])[H])C([H])=C1[H],NORTRON,Octopamine,4-(2-amino-1-hydroxyethyl)phenol,5652,DTXSID7043873,NCC(O)c1ccc(O)cc1,"InChI=1S/C8H11NO2/c9-5-8(11)6-1-3-7(10)4-2-6/h1-4,8,10-11H,5,9H2",QHGUCRYDKWKLMG-UHFFFAOYSA-N,?,,SANGSTER (1994),-0.9
101009,104-31-4,104-31-4,[H]C1=C([H])C(N([H])C([H])([H])C([H])([H])C([H])([H])C([H])([H])[H])=C([H])C([H])=C1C(=O)OC([H])([H])C([H])([H])OC([H])([H])C([H])([H])OC([H])([H])C([H])([H])OC([H])([H])C([H])([H])OC([H])([H])C([H])([H])OC([H])([H])C([H])([H])OC([H])([H])C([H])([H])OC([H])([H])C([H])([H])OC([H])([H])C([H])([H])OC([H])([H])[H],BENZONATATE,Benzonatate,"2,5,8,11,14,17,20,23,26-nonaoxaoctacosan-28-yl 4-(butylamino)benzoate",5653,DTXSID9022655,COCCOCCOCCOCCOCCOCCOCCOCCOCCOC(=O)c1ccc(cc1)NCCCC,"InChI=1S/C30H53NO11/c1-3-4-9-31-29-7-5-28(6-8-29)30(32)42-27-26-41-25-24-40-23-22-39-21-20-38-19-18-37-17-16-36-15-14-35-13-12-34-11-10-33-2/h5-8,31H,3-4,9-27H2,1-2H3",MAFMQEKGGFWBAB-UHFFFAOYSA-N,?,,"HANSCH,C ET AL. (1995)",2.45
101011,104-43-8,104-43-8,[H]OC1=C([H])C([H])=C(C([H])([H])C([H])([H])C([H])([H])C([H])([H])C([H])([H])C([H])([H])C([H])([H])C([H])([H])C([H])([H])C([H])([H])C([H])([H])C([H])([H])[H])C([H])=C1[H],"PHENOL, 4-DODECYL-",4-Dodecylphenol,4-dodecylphenol,5655,DTXSID1022508,CCCCCCCCCCCCc1ccc(O)cc1,"InChI=1S/C18H30O/c1-2-3-4-5-6-7-8-9-10-11-12-17-13-15-18(19)16-14-17/h13-16,19H,2-12H2,1H3",KJWMCPYEODZESQ-UHFFFAOYSA-N,?,,"ITOKAWA,H ET AL. (1989)",7.91
101012,104-47-2,104-47-2,[H]C1=C([H])C(C([H])([H])C#N)=C([H])C([H])=C1OC([H])([H])[H],"Benzeneacetonitrile, 4-methoxy-",4-Methoxyphenylacetonitrile,(4-methoxyphenyl)acetonitrile,5656,DTXSID0051526,COc1ccc(CC#N)cc1,"InChI=1S/C9H9NO/c1-11-9-4-2-8(3-5-9)6-7-10/h2-5H,6H2,1H3",PACGLQCRGWFBJH-UHFFFAOYSA-N,?,,"HANSCH,C ET AL. (1995)",1.7
101013,104-51-8,104-51-8,[H]C1=C([H])C([H])=C(C([H])([H])C([H])([H])C([H])([H])C([H])([H])[H])C([H])=C1[H],N-BUTYLBENZENE,Butylbenzene,butylbenzene,5657,DTXSID6022472,CCCCc1ccccc1,"InChI=1S/C10H14/c1-2-3-7-10-8-5-4-6-9-10/h4-6,8-9H,2-3,7H2,1H3",OCKPCBLVNKHBMX-UHFFFAOYSA-N,?,,"DEBRUIJN,J ET AL. (1989)",4.38
101015,104-54-1,104-54-1,[H]OC([H])([H])/C([H])=C(\[H])C1=C([H])C([H])=C([H])C([H])=C1[H],CINNAMYL ALCOHOL,3-Phenyl-2-propen-1-ol,3-phenylprop-2-en-1-ol,5659,DTXSID9041491,OCC=Cc1ccccc1,"InChI=1S/C9H10O/c10-8-4-7-9-5-2-1-3-6-9/h1-7,10H,8H2/b7-4+",OOCCDEMITAIZTP-QPJJXVBHSA-N,?,,"HANSCH,C ET AL. (1995)",1.95
101016,104-55-2,104-55-2,[H]C(=O)/C([H])=C(\[H])C1=C([H])C([H])=C([H])C([H])=C1[H],3-PHENYL-2-PROPENAL,3-Phenylprop-2-enal,C9H8O,5660,DTXSID1024835,O=CC=Cc1ccccc1,InChI=1S/C9H8O/c10-8-4-7-9-5-2-1-3-6-9/h1-8H/b7-4+,KJPRLNWUNMBNBZ-QPJJXVBHSA-N,?,,"HANSCH,C ET AL. (1995)",1.9
101017,104-63-2,104-63-2,[H]OC([H])([H])C([H])([H])N([H])C([H])([H])C1=C([H])C([H])=C([H])C([H])=C1[H],"ETHANOL, 2- (PHENYLMETHYL)AMINO -",N-Benzylethanolamine,2-(benzylamino)ethanol,5661,DTXSID1044356,OCCNCc1ccccc1,"InChI=1S/C9H13NO/c11-7-6-10-8-9-4-2-1-3-5-9/h1-5,10-11H,6-8H2",XNIOWJUQPMKCIJ-UHFFFAOYSA-N,?,,"HANSCH,C ET AL. (1995)",0.79
101019,104-72-3,104-72-3,[H]C1=C([H])C([H])=C(C([H])([H])C([H])([H])C([H])([H])C([H])([H])C([H])([H])C([H])([H])C([H])([H])C([H])([H])C([H])([H])C([H])([H])[H])C([H])=C1[H],1-PHENYLDECANE,Decylbenzene,decylbenzene,5663,DTXSID5051529,CCCCCCCCCCc1ccccc1,"InChI=1S/C16H26/c1-2-3-4-5-6-7-8-10-13-16-14-11-9-12-15-16/h9,11-12,14-15H,2-8,10,13H2,1H3",UZILCZKGXMQEQR-UHFFFAOYSA-N,?,,SANGSTER (1993),7.35
101021,104-75-6,104-75-6,[H]N([H])C([H])([H])C([H])(C([H])([H])C([H])([H])[H])C([H])([H])C([H])([H])C([H])([H])C([H])([H])[H],2-ETHYLHEXYLAMINE,2-Ethylhexylamine,2-ethylhexan-1-amine,5664,DTXSID4025298,CCCCC(CN)CC,"InChI=1S/C8H19N/c1-3-5-6-8(4-2)7-9/h8H,3-7,9H2,1-2H3",LTHNHFOGQMKPOV-UHFFFAOYSA-N,?,,"HANSCH,C ET AL. (1995)",2.82
101022,104-83-6,104-83-6,[H]C1=C([H])C(C([H])([H])Cl)=C([H])C([H])=C1Cl,"BENZENE, 1-CHLORO-4-(CHLOROMETHYL)-",4-Chlorobenzyl chloride,1-chloro-4-(chloromethyl)benzene,5665,DTXSID4051530,Clc1ccc(CCl)cc1,"InChI=1S/C7H6Cl2/c8-5-6-1-3-7(9)4-2-6/h1-4H,5H2",JQZAEUFPPSRDOP-UHFFFAOYSA-N,?,,"WANG,W ET AL. (1987)",3.18
101024,104-88-1,104-88-1,[H]C(=O)C1=C([H])C([H])=C(Cl)C([H])=C1[H],4-CHLOROBENZALDEHYDE,4-Chlorobenzaldehyde,4-chlorobenzaldehyde,5667,DTXSID2021860,O=Cc1ccc(Cl)cc1,InChI=1S/C7H5ClO/c8-7-3-1-6(5-9)2-4-7/h1-5H,AVPYQKSLYISFPO-UHFFFAOYSA-N,?,,"HANSCH,C ET AL. (1995)",2.1
101025,104-91-6,104-91-6,[H]OC1=C([H])C([H])=C(N=O)C([H])=C1[H],P-NITROSOPHENOL,4-Nitrosophenol,4-nitrosophenol,5668,DTXSID0025991,Oc1ccc(cc1)N=O,"InChI=1S/C6H5NO2/c8-6-3-1-5(7-9)2-4-6/h1-4,8H",JSTCPNFNKICNNO-UHFFFAOYSA-N,?,,"HANSCH,C ET AL. (1995)",1.29
101026,104-92-7,104-92-7,[H]C1=C([H])C(OC([H])([H])[H])=C([H])C([H])=C1Br,4-BROMOANISOLE,"Benzene, 1-bromo-4-methoxy-",1-Bromo-4-methoxybenzene,5669,DTXSID2059308,COc1ccc(Br)cc1,"InChI=1S/C7H7BrO/c1-9-7-4-2-6(8)3-5-7/h2-5H,1H3",QJPJQTDYNZXKQF-UHFFFAOYSA-N,?,,"DUNN,WJ ET AL. (1983)",3.05
101028,104-94-9,104-94-9,[H]C1=C([H])C(N([H])[H])=C([H])C([H])=C1OC([H])([H])[H],4-METHOXYANILINE,4-Methoxyaniline,4-methoxyaniline,5671,DTXSID7024532,COc1ccc(N)cc1,"InChI=1S/C7H9NO/c1-9-7-4-2-6(8)3-5-7/h2-5H,8H2,1H3",BHAAPTBBJKJZER-UHFFFAOYSA-N,?,,"HANSCH,C ET AL. (1995)",0.95