ChemID,source_casrn,CAS,SMILES,NAME,preferred_name,iupac,MPID,dsstox_substance_id,Canonical_QSARr,InChI_Code_QSARr,InChI Key_QSARr,Salt_Solvent,Salt_Solvent_ID,Kow Reference,LogP
103480,1746-81-2,1746-81-2,[H]C1=C([H])C(N([H])C(=O)N(OC([H])([H])[H])C([H])([H])[H])=C([H])C([H])=C1Cl,MONOLINURON,Monolinuron,3-(4-chlorophenyl)-1-methoxy-1-methylurea,8018,DTXSID0037576,CN(OC)C(=O)Nc1ccc(Cl)cc1,"InChI=1S/C9H11ClN2O2/c1-12(14-2)9(13)11-8-5-3-7(10)4-6-8/h3-6H,1-2H3,(H,11,13)",LKJPSUCKSLORMF-UHFFFAOYSA-N,?,,"HANSCH,C ET AL. (1995)",2.3
103481,1747-53-1,1747-53-1,[H]C1=C(C(=O)OC([H])([H])C([H])([H])[H])N([H])C(=O)N([H])C1=O,"4-PYRIMIDINECARBOXYLIC ACID, 1,2,3,6-TETRAHYDRO-",Ethyl orotate,"ethyl 2,6-dioxo-3H-pyrimidine-4-carboxylate",8019,DTXSID70169890,CCOC(=O)C1=CC(=O)NC(=O)N1,"InChI=1S/C7H8N2O4/c1-2-13-6(11)4-3-5(10)9-7(12)8-4/h3H,2H2,1H3,(H2,8,9,10,12)",OQIITSDYUWKGGR-UHFFFAOYSA-N,?,,SANGSTER (1994),0.68
103483,1752-96-1,1752-96-1,[H]C1=NC([H])=C(C(=O)N([H])C2=C([H])C([H])=C([H])C([H])=C2[H])C([H])=C1[H],NICOTINANILIDE,Nicotinanilide,N-phenylpyridine-3-carboxamide,8020,DTXSID10169950,O=C(Nc1ccccc1)c1c[n]ccc1,"InChI=1S/C12H10N2O/c15-12(10-5-4-8-13-9-10)14-11-6-2-1-3-7-11/h1-9H,(H,14,15)",NYQXIOZBHWFCBU-UHFFFAOYSA-N,?,,"HANSCH,C ET AL. (1995)",1.73
103485,1759-02-0,1759-02-0,[H]C1=C([H])C(OC(=O)N2C([H])([H])C([H])([H])C([H])([H])C2([H])[H])=C([H])C([H])=C1Cl,RH-1911 O-PH(4-CL) N-BUTYLENE CARBAMATE,"1-Pyrrolidinecarboxylic acid, p-chlorophenyl ester",(4-chlorophenyl) pyrrolidine-1-carboxylate,8022,DTXSID40170039,O=C(Oc1ccc(Cl)cc1)N1CCCC1,"InChI=1S/C11H12ClNO2/c12-9-3-5-10(6-4-9)15-11(14)13-7-1-2-8-13/h3-6H,1-2,7-8H2",VFVFGAABTXYJGO-UHFFFAOYSA-N,?,,"NANDIHALLI,UB ET AL. (1993)",3.38
103486,1759-53-1,1759-53-1,[H]OC(=O)C1([H])C([H])([H])C1([H])[H],CYCLOPROPANECARBOXYLIC ACID,Cyclopropane carboxylic acid,cyclopropanecarboxylic acid,8023,DTXSID1040665,OC(=O)C1CC1,"InChI=1S/C4H6O2/c5-4(6)3-1-2-3/h3H,1-2H2,(H,5,6)",YMGUBTXCNDTFJI-UHFFFAOYSA-N,?,,"HANSCH,C ET AL. (1995)",0.63
103489,1766-91-2,1766-91-2,[H]C1=C(C(F)(F)F)C(S(=O)(=O)N([H])[H])=C([H])C2=C1N([H])C([H])(C([H])([H])C([H])([H])C([H])([H])C([H])([H])C([H])([H])[H])N([H])S2(=O)=O,"2H-1,2,4-BENZOTHIADIAZINE-7-SULFONAMIDE, 3,4-DIH",Penflutizide,"3-pentyl-6-(trifluoromethyl)-3,4-dihydro-2H-1,2,4-benzothiadiazine-7-sulfonamide 1,1-dioxide",8024,DTXSID3048815,CCCCCC1NS(=O)(=O)c2cc(c(cc2N1)C(F)(F)F)S(N)(=O)=O,"InChI=1S/C13H18F3N3O4S2/c1-2-3-4-5-12-18-9-6-8(13(14,15)16)10(24(17,20)21)7-11(9)25(22,23)19-12/h6-7,12,18-19H,2-5H2,1H3,(H2,17,20,21)",AKHXXQAIVSMYIS-UHFFFAOYSA-N,?,,SANGSTER (1993),2.66
103492,1783-81-9,1783-81-9,[H]C1=C([H])C(N([H])[H])=C([H])C(SC([H])([H])[H])=C1[H],M-METHIOANILINE,m-(Methylthio)aniline,3-methylsulfanylaniline,8026,DTXSID9061964,CSc1cccc(N)c1,"InChI=1S/C7H9NS/c1-9-7-4-2-3-6(8)5-7/h2-5H,8H2,1H3",KCHLDNLIJVSRPK-UHFFFAOYSA-N,?,,"HANSCH,C ET AL. (1995)",1.45
103493,1792-40-1,1792-40-1,[H]C1=C2N=C(C([H])([H])[H])N([H])C2=C([H])C([N+](=O)[O-])=C1[H],"1H-BENZIMIDAZOLE, 2-METHYL-5-NITRO-","Benzimidazole, 2-methyl-5-nitro-",2-methyl-6-nitro-1H-benzimidazole,8027,DTXSID60170778,Cc1[nH]c2cc(ccc2[n]1)[N+]([O-])=O,"InChI=1S/C8H7N3O2/c1-5-9-7-3-2-6(11(12)13)4-8(7)10-5/h2-4H,1H3,(H,9,10)",RKRXTVLCZDPERO-UHFFFAOYSA-N,?,,"DEBNATH,AK ET AL. (1991)",1.94
103495,1798-03-4,1798-03-4,[H]OC(=O)C([H])([H])OC1=C([H])C([H])=C([H])C([H])=C1C([H])([H])C([H])([H])[H],O-ETHYL PHENOXYACETIC ACID,1798-03-4,C10H12O3,8028,DTXSID10324906,CCc1ccccc1OCC(O)=O,"InChI=1S/C10H12O3/c1-2-8-5-3-4-6-9(8)13-7-10(11)12/h3-6H,2,7H2,1H3,(H,11,12)",DIJUOSYHQYABQM-UHFFFAOYSA-N,?,,"HANSCH,C ET AL. (1995)",2.53
103497,1798-09-0,1798-09-0,[H]OC(=O)C([H])([H])C1=C([H])C(OC([H])([H])[H])=C([H])C([H])=C1[H],M-METHOXYPHENYLACETIC ACID,3-Methoxyphenylacetic acid,2-(3-methoxyphenyl)acetic acid,8030,DTXSID70170865,COc1cccc(CC(O)=O)c1,"InChI=1S/C9H10O3/c1-12-8-4-2-3-7(5-8)6-9(10)11/h2-5H,6H2,1H3,(H,10,11)",LEGPZHPSIPPYIO-UHFFFAOYSA-N,?,,"HANSCH,C ET AL. (1995)",1.5
103498,1798-11-4,1798-11-4,[H]OC(=O)C([H])([H])OC1=C([H])C([H])=C([N+](=O)[O-])C([H])=C1[H],P-NITROPHENOXYACETIC ACID,"Acetic acid, (4-nitrophenoxy)-",2-(4-Nitrophenoxy)acetic acid,8031,DTXSID3061978,[O-][N+](=O)c1ccc(cc1)OCC(O)=O,"InChI=1S/C8H7NO5/c10-8(11)5-14-7-3-1-6(2-4-7)9(12)13/h1-4H,5H2,(H,10,11)",AVDLFIONKHGQAP-UHFFFAOYSA-N,?,,"HANSCH,C ET AL. (1995)",1.48
103499,1798-99-8,1798-99-8,[H]OC(=O)C([H])([H])OC1=C([H])C(Br)=C([H])C([H])=C1[H],M-BROMOPHENOXYACETIC ACID,(3-bromophenoxy)acetic acid,C8H7BrO3,8032,DTXSID40351523,OC(=O)COc1cccc(Br)c1,"InChI=1S/C8H7BrO3/c9-6-2-1-3-7(4-6)12-5-8(10)11/h1-4H,5H2,(H,10,11)",CRKQPDCSWOJBJY-UHFFFAOYSA-N,?,,"HANSCH,C ET AL. (1995)",2.22
103501,1805-02-3,1805-02-3,[H]C1=C([H])C2=C(N=C(N([H])[H])N2C([H])([H])[H])C([H])=C1OC([H])([H])[H],2-Amino-1-methyl-5-methoxybenzimidazole,"1H-Benzimidazol-2-amine, 5-methoxy-1-methyl-",5-methoxy-1-methylbenzimidazol-2-amine,8034,DTXSID10170965,C[n]1c(N)[n]c2cc(ccc12)OC,"InChI=1S/C9H11N3O/c1-12-8-4-3-6(13-2)5-7(8)11-9(12)10/h3-5H,1-2H3,(H2,10,11)",BTSAWSKQHDFYIU-UHFFFAOYSA-N,?,,"HANSCH,C ET AL. (1995)",0.87
103502,1805-32-9,1805-32-9,[H]OC([H])([H])C1=C([H])C(Cl)=C(Cl)C([H])=C1[H],"3,4-DICHLOROBENZYL ALCOHOL","3,4-Dichlorobenzyl alcohol","(3,4-dichlorophenyl)methanol",8035,DTXSID70170966,OCc1cc(Cl)c(Cl)cc1,"InChI=1S/C7H6Cl2O/c8-6-2-1-5(4-10)3-7(6)9/h1-3,10H,4H2",FVJIUQSKXOYFKG-UHFFFAOYSA-N,?,,CHEMICALS INSPECTION AND TESTING INSTITU (1992),2.74
103503,1809-20-7,1809-20-7,[H]C([H])([H])C([H])(OP([H])(=O)OC([H])(C([H])([H])[H])C([H])([H])[H])C([H])([H])[H],"PHOSPHONIC ACID, BIS(1-METHYLETHYL) ESTER","Phosphonic acid, bis(1-methylethyl) ester",hydroxy-di(propan-2-yloxy)phosphanium,8036,DTXSID7061988,CC(C)OP(=O)OC(C)C,"InChI=1S/C6H15O3P/c1-5(2)8-10(7)9-6(3)4/h5-6,10H,1-4H3",BLKXLEPPVDUHBY-UHFFFAOYSA-N,?,,POMONA (1987),0.45
103505,1817-47-6,1817-47-6,[H]C1=C([H])C(C([H])(C([H])([H])[H])C([H])([H])[H])=C([H])C([H])=C1[N+](=O)[O-],4-ISOPROPYLNITROBENZENE,p-Nitrocumene,1-nitro-4-propan-2-ylbenzene,8038,DTXSID6061991,CC(C)c1ccc(cc1)[N+]([O-])=O,"InChI=1S/C9H11NO2/c1-7(2)8-3-5-9(6-4-8)10(11)12/h3-7H,1-2H3",JXMYUMNAEKRMIP-UHFFFAOYSA-N,?,,"HANSCH,C ET AL. (1995)",3.45
103506,1820-81-1,1820-81-1,[H]C1=C(Cl)C(=O)N([H])C(=O)N1[H],5-CHLOROURACIL,5-Chlorouracil,"5-chloro-1H-pyrimidine-2,4-dione",8039,DTXSID7075137,O=C1NC=C(Cl)C(=O)N1,"InChI=1S/C4H3ClN2O2/c5-2-1-6-4(9)7-3(2)8/h1H,(H2,6,7,8,9)",ZFTBZKVVGZNMJR-UHFFFAOYSA-N,?,,"HANSCH,C ET AL. (1995)",-0.35
103507,1821-12-1,1821-12-1,[H]OC(=O)C([H])([H])C([H])([H])C([H])([H])C1=C([H])C([H])=C([H])C([H])=C1[H],4-PHENYLBUTYRIC ACID,4-Phenylbutyric acid,4-phenylbutanoic acid,8040,DTXSID2037631,OC(=O)CCCc1ccccc1,"InChI=1S/C10H12O2/c11-10(12)8-4-7-9-5-2-1-3-6-9/h1-3,5-6H,4,7-8H2,(H,11,12)",OBKXEAXTFZPCHS-UHFFFAOYSA-N,?,,"HANSCH,C ET AL. (1995)",2.42
103509,1824-46-0,1824-46-0,[H]C1=C(C([H])([H])[H])C(S(=O)(=O)N([H])[H])=C([H])C2=C1N([H])C([H])([H])N([H])S2(=O)=O,6-METHYLHYDROTHIAZIDE,,,8042,DTXSID00879177,Cc1cc2NCNS(=O)(=O)c2cc1S(N)(=O)=O,"InChI=1S/C8H11N3O4S2/c1-5-2-6-8(3-7(5)16(9,12)13)17(14,15)11-4-10-6/h2-3,10-11H,4H2,1H3,(H2,9,12,13)",PFHLGOOYVFGCPT-UHFFFAOYSA-N,?,,"HANSCH,C ET AL. (1995)",-0.22
103510,1824-47-1,1824-47-1,[H]C1=C(Cl)C(S(=O)(=O)N([H])[H])=C([H])C2=C1N([H])C([H])(C([H])([H])Cl)N([H])S2(=O)=O,3-CHLOROMETHYLHYDROCHLOROTHIAZIDE,,,8043,DTXSID10875786,NS(=O)(=O)c1cc2c(cc1Cl)NC(CCl)NS2(=O)=O,"InChI=1S/C8H9Cl2N3O4S2/c9-3-8-12-5-1-4(10)6(18(11,14)15)2-7(5)19(16,17)13-8/h1-2,8,12-13H,3H2,(H2,11,14,15)",ILEKCYUSYWEDPL-UHFFFAOYSA-N,?,,"HANSCH,C ET AL. (1995)",0.11
103511,1824-50-6,1824-50-6,[H]C1=C([H])C([H])=C(C([H])([H])C2([H])N([H])C3=C([H])C(Cl)=C(S(=O)(=O)N([H])[H])C([H])=C3S(=O)(=O)N2[H])C([H])=C1[H],3-BENZYLHYDROCHLOROTHIAZIDE,Benzylhydrochlorothiazide,"3-benzyl-6-chloro-3,4-dihydro-2H-1,2,4-benzothiadiazine-7-sulfonamide 1,1-dioxide",8044,DTXSID1045114,NS(=O)(=O)c1cc2c(cc1Cl)NC(Cc1ccccc1)NS2(=O)=O,"InChI=1S/C14H14ClN3O4S2/c15-10-7-11-13(8-12(10)23(16,19)20)24(21,22)18-14(17-11)6-9-4-2-1-3-5-9/h1-5,7-8,14,17-18H,6H2,(H2,16,19,20)",BWSSMIJUDVUASQ-UHFFFAOYSA-N,?,,"HANSCH,C ET AL. (1995)",0.93
103513,1825-21-4,1825-21-4,[H]C([H])([H])OC1=C(Cl)C(Cl)=C(Cl)C(Cl)=C1Cl,PENTACHLOROANISOLE,Pentachloroanisole,methyl pentachlorophenyl ether,8046,DTXSID2021103,COc1c(Cl)c(Cl)c(Cl)c(Cl)c1Cl,InChI=1S/C7H3Cl5O/c1-13-7-5(11)3(9)2(8)4(10)6(7)12/h1H3,BBABSCYTNHOKOG-UHFFFAOYSA-N,?,,"OPPERHUIZEN,A & VOORS,PI (1987)",5.45
103514,1825-30-5,1825-30-5,[H]C1=C([H])C(Cl)=C2C([H])=C([H])C([H])=C(Cl)C2=C1[H],"1,5-DICHLORONAPHTHALENE","Naphthalene, 1,5-dichloro-","1,5-DICHLORONAPHTHALENE",8047,DTXSID1061998,Clc1cccc2c1cccc2Cl,InChI=1S/C10H6Cl2/c11-9-5-1-3-7-8(9)4-2-6-10(7)12/h1-6H,ZBQZXTBAGBTUAD-UHFFFAOYSA-N,?,,"OPPERHUIZEN,A (1987)",4.67
103515,1825-31-6,1825-31-6,[H]C1=C([H])C([H])=C2C(Cl)=C([H])C([H])=C(Cl)C2=C1[H],"1,4-DICHLORONAPHTHALENE","Naphthalene, 1,4-dichloro-","1,4-DICHLORONAPHTHALENE",8048,DTXSID6061999,Clc1ccc(Cl)c2ccccc12,InChI=1S/C10H6Cl2/c11-9-5-6-10(12)8-4-2-1-3-7(8)9/h1-6H,JDPKCYMVSKDOGS-UHFFFAOYSA-N,?,,"LEI,YD ET AL. (2000)",4.8
103517,1828-76-8,1828-76-8,[H]OC1(C([H])([H])[H])OC(=O)C2=C([H])C([H])=C([H])C([H])=C21,"1(3H)-ISOBENZOFURANONE, 3-HYDROXY-3-METHYL-",,,8050,DTXSID30875864,CC1(O)OC(=O)c2ccccc12,"InChI=1S/C9H8O3/c1-9(11)7-5-3-2-4-6(7)8(10)12-9/h2-5,11H,1H3",NXTNWTAZYOVOGN-UHFFFAOYSA-N,?,,POMONA (1987),0.81
103518,1829-37-4,1829-37-4,[H]C1=C([H])C([H])=C(OC(=O)C([H])([H])[H])C(Br)=C1[H],2-BROMOPHENYL ACETATE,o-Bromophenyl acetate,(2-bromophenyl) acetate,8051,DTXSID70171357,CC(=O)Oc1ccccc1Br,"InChI=1S/C8H7BrO2/c1-6(10)11-8-5-3-2-4-7(8)9/h2-5H,1H3",BEHBHYYPTOHUHX-UHFFFAOYSA-N,?,,"HANSCH,C ET AL. (1995)",2.2
103519,1832-68-4,1832-68-4,[H]C([H])([H])C([H])([H])C([H])([H])C([H])([H])C([H])([H])C([H])([H])C([H])([H])C([H])([H])OP(=O)(OC([H])([H])C([H])([H])C([H])([H])C([H])([H])C([H])([H])C([H])([H])C([H])([H])C([H])([H])[H])C([H])([H])[H],DIOCTYL METHYLPHOSPHONATE,Dioctyl methylphosphonate,1-(methyl-octoxyphosphoryl)oxyoctane,8052,DTXSID30171398,CP(=O)(OCCCCCCCC)OCCCCCCCC,"InChI=1S/C17H37O3P/c1-4-6-8-10-12-14-16-19-21(3,18)20-17-15-13-11-9-7-5-2/h4-17H2,1-3H3",QNNWHJRQILFWHD-UHFFFAOYSA-N,?,,"KRIKORIAN,SE ET AL. (1987)",6.13
103521,1836-77-7,1836-77-7,[H]C1=C([H])C([N+](=O)[O-])=C([H])C([H])=C1OC1=C(Cl)C([H])=C(Cl)C([H])=C1Cl,CHLORNITROFEN,Chlornitrofen,"4-nitrophenyl 2,4,6-trichlorophenyl ether",8054,DTXSID0041775,[O-][N+](=O)c1ccc(cc1)Oc1c(Cl)cc(Cl)cc1Cl,InChI=1S/C12H6Cl3NO3/c13-7-5-10(14)12(11(15)6-7)19-9-3-1-8(2-4-9)16(17)18/h1-6H,XQNAUQUKWRBODG-UHFFFAOYSA-N,?,,"KAWAMOTO,K & URANO,K (1989)",4.97
103522,1841-19-6,1841-19-6,[H]C1=C([H])C([H])=C(N2C([H])([H])N([H])C(=O)C23C([H])([H])C([H])([H])N(C([H])([H])C([H])([H])C([H])([H])C([H])(C2=C([H])C([H])=C(F)C([H])=C2[H])C2=C([H])C([H])=C(F)C([H])=C2[H])C([H])([H])C3([H])[H])C([H])=C1[H],Fluspirilene,Fluspirilene,"8-[4,4-bis(4-fluorophenyl)butyl]-1-phenyl-1,3,8-triazaspiro[4.5]decan-4-one",8055,DTXSID7045152,O=C1NCN(c2ccccc2)C21CCN(CCCC(c1ccc(F)cc1)c1ccc(F)cc1)CC2,"InChI=1S/C29H31F2N3O/c30-24-12-8-22(9-13-24)27(23-10-14-25(31)15-11-23)7-4-18-33-19-16-29(17-20-33)28(35)32-21-34(29)26-5-2-1-3-6-26/h1-3,5-6,8-15,27H,4,7,16-21H2,(H,32,35)",QOYHHIBFXOOADH-UHFFFAOYSA-N,?,,"HANSCH,C ET AL. (1995)",5.86
103523,1848-75-5,1848-75-5,[H]C1=C([H])C([H])=C(N([H])C2=NC([H])([H])C([H])([H])N2[H])C([H])=C1[H],"2-IMIDAZOLIDINIMINE, N-PHENYL-","Imidazolidine, 2-(phenylimino)-","N-phenyl-4,5-dihydro-1H-imidazol-2-amine",8056,DTXSID00171663,C1CN=C(Nc2ccccc2)N1,"InChI=1S/C9H11N3/c1-2-4-8(5-3-1)12-9-10-6-7-11-9/h1-5H,6-7H2,(H2,10,11,12)",JCOPITWIWLFFPC-UHFFFAOYSA-N,?,,"HANSCH,C ET AL. (1995)",1.01
103525,1861-32-1,1861-32-1,[H]C([H])([H])OC(=O)C1=C(Cl)C(Cl)=C(C(=O)OC([H])([H])[H])C(Cl)=C1Cl,DIMETHYL TETRACHLOROTEREPHTHALATE,Chlorthal-dimethyl,"dimethyl 2,3,5,6-tetrachlorobenzene-1,4-dicarboxylate",8058,DTXSID0024000,COC(=O)c1c(Cl)c(Cl)c(c(Cl)c1Cl)C(=O)OC,InChI=1S/C10H6Cl4O4/c1-17-9(15)3-5(11)7(13)4(10(16)18-2)8(14)6(3)12/h1-2H3,NPOJQCVWMSKXDN-UHFFFAOYSA-N,?,,"TOMLIN,C (1997)",4.28
103526,1861-40-1,1861-40-1,[H]C1=C([N+](=O)[O-])C(N(C([H])([H])C([H])([H])[H])C([H])([H])C([H])([H])C([H])([H])C([H])([H])[H])=C([N+](=O)[O-])C([H])=C1C(F)(F)F,BENEFIN,Benfluralin,"N-butyl-N-ethyl-2,6-dinitro-4-(trifluoromethyl)aniline",8059,DTXSID3023899,CCCCN(CC)c1c(cc(cc1[N+]([O-])=O)C(F)(F)F)[N+]([O-])=O,"InChI=1S/C13H16F3N3O4/c1-3-5-6-17(4-2)12-10(18(20)21)7-9(13(14,15)16)8-11(12)19(22)23/h7-8H,3-6H2,1-2H3",SMDHCQAYESWHAE-UHFFFAOYSA-N,?,,"TOMLIN,C (1997)",5.29
103527,1864-94-4,1864-94-4,[H]C(=O)OC1=C([H])C([H])=C([H])C([H])=C1[H],PHENYL FORMATE,Phenyl formate,PHENYL FORMATE,8060,DTXSID30171898,O=COc1ccccc1,InChI=1S/C7H6O2/c8-6-9-7-4-2-1-3-5-7/h1-6H,GEOWCLRLLWTHDN-UHFFFAOYSA-N,?,,"HANSCH,C ET AL. (1995)",1.26
103530,1873-43-4,NOCAS_871687,[H]ON1C(=O)C(C([H])([H])C([H])(C([H])([H])[H])C([H])([H])[H])=NC([H])=C1C([H])(C([H])([H])[H])C([H])([H])C([H])([H])[H],ASPERGILLIC ACID,,,8062,DTXSID10871687,CC(C)CC1=NC=C(C(C)CC)N(O)C1=O,"InChI=1S/C12H20N2O2/c1-5-9(4)11-7-13-10(6-8(2)3)12(15)14(11)16/h7-9,16H,5-6H2,1-4H3",IUZCDJYHMMWBBE-UHFFFAOYSA-N,?,,BIOBYTE STARLIST (2009),1.81
103531,1874-12-0,1874-12-0,[H]C1=C(/C([H])=C(\[H])C(=O)OC([H])([H])C([H])([H])[H])OC([N+](=O)[O-])=C1[H],1-(5-NO2-2-furyl)-2-(COO-Et)ethylene,"2-Propenoic acid, 3-(5-nitro-2-furanyl)-, ethyl ester",,8063,DTXSID0075150,CCOC(=O)C=Cc1ccc(o1)[N+]([O-])=O,"InChI=1S/C9H9NO5/c1-2-14-9(11)6-4-7-3-5-8(15-7)10(12)13/h3-6H,2H2,1H3/b6-4+",WGROOPOBLKUOMN-GQCTYLIASA-N,?,,"BALAZ,S ET AL. (1987)",2.1
103532,1874-22-2,NOCAS_870917,[H]C(=O)/C([H])=C(\[H])C1=C([H])C([H])=C([N+](=O)[O-])O1,"2-PROPENAL, 3-(5-NITRO-2-FURANYL)-",,,8064,DTXSID50870917,[O-][N+](=O)c1ccc(C=CC=O)o1,InChI=1S/C7H5NO4/c9-5-1-2-6-3-4-7(12-6)8(10)11/h1-5H/b2-1+,DXWCZMGIIFEEPU-OWOJBTEDSA-N,?,,"DEBNATH,AK ET AL. (1991)",0.96
103534,1877-71-0,1877-71-0,[H]OC(=O)C1=C([H])C(C(=O)OC([H])([H])[H])=C([H])C([H])=C1[H],"ISOPHTHALIC ACID, METHYL ESTER",3-(Methoxycarbonyl)benzoic acid,C9H8O4,8066,DTXSID00345100,COC(=O)c1cc(ccc1)C(O)=O,"InChI=1S/C9H8O4/c1-13-9(12)7-4-2-3-6(5-7)8(10)11/h2-5H,1H3,(H,10,11)",WMZNGTSLFSJHMZ-UHFFFAOYSA-N,?,,"HANSCH,C ET AL. (1995)",1.83
103535,1877-72-1,1877-72-1,[H]OC(=O)C1=C([H])C([H])=C([H])C(C#N)=C1[H],M-CYANOBENZOIC ACID,3-Cyanobenzoic acid,3-CYANOBENZOIC ACID,8067,DTXSID00172074,N#Cc1cc(ccc1)C(O)=O,"InChI=1S/C8H5NO2/c9-5-6-2-1-3-7(4-6)8(10)11/h1-4H,(H,10,11)",GYLKKXHEIIFTJH-UHFFFAOYSA-N,?,,"HANSCH,C ET AL. (1995)",1.48
103536,1877-73-2,1877-73-2,[H]OC(=O)C([H])([H])C1=C([H])C([H])=C([H])C([N+](=O)[O-])=C1[H],M-NITROPHENYLACETIC ACID,"Acetic acid, (m-nitrophenyl)-",2-(3-NITROPHENYL)ACETIC ACID,8068,DTXSID60172075,[O-][N+](=O)c1cccc(CC(O)=O)c1,"InChI=1S/C8H7NO4/c10-8(11)5-6-2-1-3-7(4-6)9(12)13/h1-4H,5H2,(H,10,11)",WUKHOVCMWXMOOA-UHFFFAOYSA-N,?,,"HANSCH,C ET AL. (1995)",1.45
103538,1877-77-6,1877-77-6,[H]OC([H])([H])C1=C([H])C([H])=C([H])C(N([H])[H])=C1[H],M-AMINOBENZYL ALCOHOL,"Benzenemethanol, 3-amino- (9CI)",(3-aminophenyl)methanol,8070,DTXSID20172076,Nc1cc(CO)ccc1,"InChI=1S/C7H9NO/c8-7-3-1-2-6(4-7)5-9/h1-4,9H,5,8H2",OJZQOQNSUZLSMV-UHFFFAOYSA-N,?,,"HANSCH,C ET AL. (1995)",-0.05
103539,1878-49-5,1878-49-5,[H]OC(=O)C([H])([H])OC1=C([H])C([H])=C([H])C([H])=C1C([H])([H])[H],O-METHYLPHENOXYACETIC ACID,(2-Methylphenoxy)acetic acid,(2-methylphenoxy)acetic acid,8071,DTXSID9041441,Cc1ccccc1OCC(O)=O,"InChI=1S/C9H10O3/c1-7-4-2-3-5-8(7)12-6-9(10)11/h2-5H,6H2,1H3,(H,10,11)",QJVXBRUGKLCUMY-UHFFFAOYSA-N,?,,"HANSCH,C ET AL. (1995)",1.98
103540,1878-51-9,1878-51-9,[H]OC(=O)C([H])([H])OC1=C([H])C([H])=C([H])C(C([H])([H])C([H])([H])[H])=C1[H],M-ETHYLPHENOXYACETIC ACID,2-(3-ethylphenoxy)acetic acid,C10H12O3,8072,DTXSID90368666,CCc1cc(ccc1)OCC(O)=O,"InChI=1S/C10H12O3/c1-2-8-4-3-5-9(6-8)13-7-10(11)12/h3-6H,2,7H2,1H3,(H,11,12)",UPXZHPLISDBGJG-UHFFFAOYSA-N,?,,"HANSCH,C ET AL. (1995)",2.25
103542,1878-53-1,1878-53-1,[H]OC(=O)C([H])([H])OC1=C([H])C([H])=C([H])C(C([H])([H])C([H])([H])C([H])([H])C([H])([H])[H])=C1[H],M-BUTYLPHENOXYACETIC ACID,PUBCHEM_21667080,C12H16O3,8074,DTXSID10616676,CCCCc1cc(ccc1)OCC(O)=O,"InChI=1S/C12H16O3/c1-2-3-5-10-6-4-7-11(8-10)15-9-12(13)14/h4,6-8H,2-3,5,9H2,1H3,(H,13,14)",OBZICKNCNDJTLR-UHFFFAOYSA-N,?,,"HANSCH,C ET AL. (1995)",3.18
103543,1878-55-3,1878-55-3,[H]OC(=O)C([H])([H])OC1=C([H])C([H])=C([H])C(C(C([H])([H])[H])(C([H])([H])[H])C([H])([H])[H])=C1[H],M-T-BUTYLPHENOXYACETIC ACID,,,8075,DTXSID40876882,CC(C)(C)c1cc(ccc1)OCC(O)=O,"InChI=1S/C12H16O3/c1-12(2,3)9-5-4-6-10(7-9)15-8-11(13)14/h4-7H,8H2,1-3H3,(H,13,14)",TZCJVGQCSABBGD-UHFFFAOYSA-N,?,,"HANSCH,C ET AL. (1995)",2.96
103544,1878-56-4,1878-56-4,[H]OC(=O)C([H])([H])OC1=C([H])C([H])=C(C2([H])C([H])([H])C([H])([H])C([H])([H])C([H])([H])C2([H])[H])C([H])=C1[H],"PHENOXYACETIC ACID,4-CYCLOHEXYL",(4-cyclohexylphenoxy)acetic acid,C14H18O3,8076,DTXSID90325936,OC(=O)COc1ccc(cc1)C1CCCCC1,"InChI=1S/C14H18O3/c15-14(16)10-17-13-8-6-12(7-9-13)11-4-2-1-3-5-11/h6-9,11H,1-5,10H2,(H,15,16)",FODXAKQIZRQXBS-UHFFFAOYSA-N,?,,"HANSCH,C ET AL. (1995)",3.79
103546,1878-58-6,1878-58-6,[H]OC(=O)C([H])([H])OC1=C([H])C([H])=C2C(=C1[H])C([H])([H])C([H])([H])C2([H])[H],5-INDANOXYACETIC ACID,"Acetic acid, ((2,3-dihydro-1H-inden-5-yl)oxy)- (9CI)","2-(2,3-dihydro-1H-inden-5-yloxy)acetic acid",8078,DTXSID50172089,OC(=O)COc1cc2CCCc2cc1,"InChI=1S/C11H12O3/c12-11(13)7-14-10-5-4-8-2-1-3-9(8)6-10/h4-6H,1-3,7H2,(H,12,13)",VJJPTBBOPNGSRR-UHFFFAOYSA-N,?,,"HANSCH,C ET AL. (1995)",2.33
103547,1878-59-7,1878-59-7,[H]OC(=O)C([H])([H])OC1=C([H])C([H])=C2C(=C1[H])C([H])([H])C([H])([H])C([H])([H])C2([H])[H],2(5678-TETRAHYDRONAPHTHYLOXY)ACETIC ACID,"(5,6,7,8-Tetrahydro-naphthalen-2-yloxy)-acetic acid",C12H14O3,8079,DTXSID90397077,OC(=O)COc1cc2CCCCc2cc1,"InChI=1S/C12H14O3/c13-12(14)8-15-11-6-5-9-3-1-2-4-10(9)7-11/h5-7H,1-4,8H2,(H,13,14)",WCKYBLCGUSVWQI-UHFFFAOYSA-N,?,,"HANSCH,C ET AL. (1995)",2.67
103548,1878-61-1,1878-61-1,[H]OC(=O)C1=C([H])C(OC([H])([H])C(=O)O[H])=C([H])C([H])=C1[H],"PHENOXYACETIC ACID, M-CARBOXY",,,8080,DTXSID80879736,OC(=O)c1cc(ccc1)OCC(O)=O,"InChI=1S/C9H8O5/c10-8(11)5-14-7-3-1-2-6(4-7)9(12)13/h1-4H,5H2,(H,10,11)(H,12,13)",GXFAJSDLPLCRIQ-UHFFFAOYSA-N,?,,"HANSCH,C ET AL. (1995)",1.11
103550,1878-65-5,1878-65-5,[H]OC(=O)C([H])([H])C1=C([H])C([H])=C([H])C(Cl)=C1[H],M-CHLOROPHENYLACETIC ACID,3-Chlorophenylacetic acid,2-(3-chlorophenyl)acetic acid,8082,DTXSID5075151,OC(=O)Cc1cccc(Cl)c1,"InChI=1S/C8H7ClO2/c9-7-3-1-2-6(4-7)5-8(10)11/h1-4H,5H2,(H,10,11)",WFPMUFXQDKMVCO-UHFFFAOYSA-N,?,,"HANSCH,C ET AL. (1995)",2.09
103551,1878-66-6,1878-66-6,[H]OC(=O)C([H])([H])C1=C([H])C([H])=C(Cl)C([H])=C1[H],P-CHLOROPHENYLACETIC ACID,p-Chlorophenylacetic acid,2-(4-chlorophenyl)acetic acid,8083,DTXSID7062031,OC(=O)Cc1ccc(Cl)cc1,"InChI=1S/C8H7ClO2/c9-7-3-1-6(2-4-7)5-8(10)11/h1-4H,5H2,(H,10,11)",CDPKJZJVTHSESZ-UHFFFAOYSA-N,?,,"HANSCH,C ET AL. (1995)",2.12
103552,1878-67-7,1878-67-7,[H]OC(=O)C([H])([H])C1=C([H])C([H])=C([H])C(Br)=C1[H],M-BROMOPHENYLACETIC ACID,3-Bromophenylacetic acid,2-(3-bromophenyl)acetic acid,8084,DTXSID0075152,OC(=O)Cc1cccc(Br)c1,"InChI=1S/C8H7BrO2/c9-7-3-1-2-6(4-7)5-8(10)11/h1-4H,5H2,(H,10,11)",KYNNBXCGXUOREX-UHFFFAOYSA-N,?,,"HANSCH,C ET AL. (1995)",2.37
103554,1878-69-9,1878-69-9,[H]OC(=O)C([H])([H])C1=C([H])C(I)=C([H])C([H])=C1[H],M-IODOPHENYLACETIC ACID,3-Iodophenylacetic acid,C8H7IO2,8086,DTXSID50397634,OC(=O)Cc1cccc(I)c1,"InChI=1S/C8H7IO2/c9-7-3-1-2-6(4-7)5-8(10)11/h1-4H,5H2,(H,10,11)",MRSWWBAFGGGWRH-UHFFFAOYSA-N,?,,"HANSCH,C ET AL. (1995)",2.62
103555,1878-71-3,1878-71-3,[H]OC(=O)C([H])([H])C1=C([H])C([H])=C([H])C(C#N)=C1[H],M-CYANOPHENYLACETIC ACID,3-Cyanophenylacetic acid,C9H7NO2,8087,DTXSID30364021,N#Cc1cccc(CC(O)=O)c1,"InChI=1S/C9H7NO2/c10-6-8-3-1-2-7(4-8)5-9(11)12/h1-4H,5H2,(H,11,12)",ZNXMNKGBHYVNNE-UHFFFAOYSA-N,?,,"HANSCH,C ET AL. (1995)",1.18
103556,1878-76-8,3996-30-3,[H]OC(=O)C([H])([H])OC1=C([H])C([H])=C([H])C(SC([H])([H])[H])=C1[H],"Phenoxyacetic acid, m-methylthio-",,,8088,DTXSID8063258,CSc1cc(ccc1)OCC(O)=O,"InChI=1S/C9H10O3S/c1-13-8-4-2-3-7(5-8)12-6-9(10)11/h2-5H,6H2,1H3,(H,10,11)",UGRLINOTUNAGKY-UHFFFAOYSA-N,?,,"HANSCH,C ET AL. (1995)",1.9