ChemID,source_casrn,CAS,SMILES,NAME,preferred_name,iupac,MPID,dsstox_substance_id,Canonical_QSARr,InChI_Code_QSARr,InChI Key_QSARr,Salt_Solvent,Salt_Solvent_ID,Kow Reference,LogP
102424,598-50-5,598-50-5,[H]N([H])C(=O)N([H])C([H])([H])[H],"UREA, METHYL-",Methylurea,METHYLUREA,7018,DTXSID5060510,CNC(N)=O,"InChI=1S/C2H6N2O/c1-4-2(3)5/h1H3,(H3,3,4,5)",XGEGHDBEHXKFPX-UHFFFAOYSA-N,?,,"SOTOMATSU,T ET AL. (1987)",-1.4
102425,598-52-7,598-52-7,[H]N([H])C(=S)N([H])C([H])([H])[H],N-METHYLTHIOUREA,N-Methylthiourea,Methylthiourea,7019,DTXSID90208533,CNC(N)=S,"InChI=1S/C2H6N2S/c1-4-2(3)5/h1H3,(H3,3,4,5)",KQJQICVXLJTWQD-UHFFFAOYSA-N,?,,"GOVERS,H ET AL. (1986)",-0.69
102427,598-56-1,598-56-1,[H]C([H])([H])N(C([H])([H])[H])C([H])([H])C([H])([H])[H],ETHYL DIMETHYLAMINE,"N,N-Dimethylethylamine","N,N-dimethylethanamine",7021,DTXSID4027232,CCN(C)C,"InChI=1S/C4H11N/c1-4-5(2)3/h4H2,1-3H3",DAZXVJBJRMWXJP-UHFFFAOYSA-N,?,,"HANSCH,C ET AL. (1995)",0.7
102428,598-72-1,598-72-1,[H]OC(=O)C([H])(Br)C([H])([H])[H],A-BROMOPROPIONIC ACID,2-Bromopropionic acid,2-bromopropanoic acid,7022,DTXSID9027233,CC(Br)C(O)=O,"InChI=1S/C3H5BrO2/c1-2(4)3(5)6/h2H,1H3,(H,5,6)",MONMFXREYOKQTI-UHFFFAOYSA-N,?,,"HANSCH,C ET AL. (1995)",0.92
102429,598-75-4,NOCAS_862268,[H]OC([H])(C([H])([H])[H])C([H])(C([H])([H])[H])C([H])([H])[H],3-METHYL-2-BUTANOL,,,7023,DTXSID20862268,CC(C)C(C)O,"InChI=1S/C5H12O/c1-4(2)5(3)6/h4-6H,1-3H3",MXLMTQWGSQIYOW-UHFFFAOYSA-N,?,,"HANSCH,C ET AL. (1995)",1.28
102432,598-98-1,598-98-1,[H]C([H])([H])OC(=O)C(C([H])([H])[H])(C([H])([H])[H])C([H])([H])[H],"PROPANOIC ACID, 2,2-DIMETHYL-, METHYL ESTER",Methyl pivalate,"methyl 2,2-dimethylpropanoate",7025,DTXSID4027234,COC(=O)C(C)(C)C,"InChI=1S/C6H12O2/c1-6(2,3)5(7)8-4/h1-4H3",CNMFHDIDIMZHKY-UHFFFAOYSA-N,?,,"HANSCH,C ET AL. (1995)",1.83
102433,598-99-2,598-99-2,[H]C([H])([H])OC(=O)C(Cl)(Cl)Cl,METHYL TRICHLOROACETATE,"Acetic acid, 2,2,2-trichloro-, methyl ester","methyl 2,2,2-trichloroacetate",7026,DTXSID0060517,COC(=O)C(Cl)(Cl)Cl,"InChI=1S/C3H3Cl3O2/c1-8-2(7)3(4,5)6/h1H3",VHFUHRXYRYWELT-UHFFFAOYSA-N,?,,"HANSCH,C ET AL. (1995)",2.03
102434,599-71-3,599-71-3,[H]ON([H])S(=O)(=O)C1=C([H])C([H])=C([H])C([H])=C1[H],"BENZENESULFONAMIDE, N-HYDROXY-","Benzenesulfonamide, N-hydroxy-",N-Hydroxybenzenesulfonamide,7027,DTXSID4060521,ONS(=O)(=O)c1ccccc1,"InChI=1S/C6H7NO3S/c8-7-11(9,10)6-4-2-1-3-5-6/h1-5,7-8H",BRMDATNYMUMZLN-UHFFFAOYSA-N,?,,POMONA (1987),0.48
102437,600-24-8,600-24-8,[H]C([H])([H])C([H])([H])C([H])([N+](=O)[O-])C([H])([H])[H],2-NITROBUTANE,2-Nitrobutane,2-nitrobutane,7029,DTXSID3020968,CCC(C)[N+]([O-])=O,"InChI=1S/C4H9NO2/c1-3-4(2)5(6)7/h4H,3H2,1-2H3",SUGZATOHBPXTDV-UHFFFAOYSA-N,?,,"HANSCH,C ET AL. (1995)",1.2
102438,601-77-4,601-77-4,[H]C([H])([H])C([H])(N(N=O)C([H])(C([H])([H])[H])C([H])([H])[H])C([H])([H])[H],DI-I-PROPYLNITROSOAMINE,Diisopropylnitrosamine,"N,N-di(propan-2-yl)nitrous amide",7030,DTXSID20208844,CC(C)N(N=O)C(C)C,"InChI=1S/C6H14N2O/c1-5(2)8(7-9)6(3)4/h5-6H,1-4H3",AUIKJTGFPFLMFP-UHFFFAOYSA-N,?,,"HANSCH,C ET AL. (1995)",1.38
102439,601-84-3,NOCAS_870668,[H]OC(=O)C1=C(Br)C([H])=C([H])C([H])=C1Br,"Benzoic acid, 2,6-dibromo-",,,7031,DTXSID40870668,OC(=O)c1c(Br)cccc1Br,"InChI=1S/C7H4Br2O2/c8-4-2-1-3-5(9)6(4)7(10)11/h1-3H,(H,10,11)",HQLOEBRPCVIFCT-UHFFFAOYSA-N,?,,BIOBYTE (1995),3.58
102441,602-38-0,602-38-0,[H]C1=C([H])C2=C([H])C([H])=C([H])C([N+](=O)[O-])=C2C([N+](=O)[O-])=C1[H],"NAPHTHALENE, 1,8-DINITRO-","1,8-Dinitronaphthalene","1,8-dinitronaphthalene",7033,DTXSID9025166,[O-][N+](=O)c1cccc2cccc(c21)[N+]([O-])=O,InChI=1S/C10H6N2O4/c13-11(14)8-5-1-3-7-4-2-6-9(10(7)8)12(15)16/h1-6H,AVCSMMMOCOTIHF-UHFFFAOYSA-N,?,,"DEBNATH,AK ET AL. (1992)",2.52
102442,602-55-1,602-55-1,[H]C1=C([H])C([H])=C(C2=C3C([H])=C([H])C([H])=C([H])C3=C([H])C3=C([H])C([H])=C([H])C([H])=C32)C([H])=C1[H],9-PHENYLANTHRACENE,"Anthracene, 9-phenyl-",9-PHENYLANTHRACENE,7034,DTXSID3075254,c1c2ccccc2c(c2ccccc21)-c1ccccc1,InChI=1S/C20H14/c1-2-8-15(9-3-1)20-18-12-6-4-10-16(18)14-17-11-5-7-13-19(17)20/h1-14H,LUBXLGUQZVKOFP-UHFFFAOYSA-N,?,,"WANG,L ET AL. (1986)",6.01
102443,602-60-8,602-60-8,[H]C1=C([H])C([H])=C2C(=C1[H])C([H])=C1C([H])=C([H])C([H])=C([H])C1=C2[N+](=O)[O-],"ANTHRACENE, 9-NITRO-",9-Nitroanthracene,9-nitroanthracene,7035,DTXSID5025730,[O-][N+](=O)c1c2ccccc2cc2ccccc21,InChI=1S/C14H9NO2/c16-15(17)14-12-7-3-1-5-10(12)9-11-6-2-4-8-13(11)14/h1-9H,LSIKFJXEYJIZNB-UHFFFAOYSA-N,?,,"DEBNATH,AK & HANSCH,C (1992)",4.78
102445,603-00-9,603-00-9,[H]OC([H])(C([H])([H])[H])C([H])([H])N1C([H])=NC2=C1C(=O)N(C([H])([H])[H])C(=O)N2C([H])([H])[H],PROXYPHYLLINE,Proxyphylline,"7-(2-hydroxypropyl)-1,3-dimethyl-3,7-dihydro-1H-purine-2,6-dione",7037,DTXSID5023536,CC(O)C[n]1c[n]c2c1C(=O)N(C)C(=O)N2C,"InChI=1S/C10H14N4O3/c1-6(15)4-14-5-11-8-7(14)9(16)13(3)10(17)12(8)2/h5-6,15H,4H2,1-3H3",KYHQZNGJUGFTGR-UHFFFAOYSA-N,?,,SANGSTER (1994),-0.77
102446,603-11-2,603-11-2,[H]OC(=O)C1=C([H])C([H])=C([H])C([N+](=O)[O-])=C1C(=O)O[H],3-NITROPHTHALIC ACID,3-Nitrophthalic acid,3-Nitrophthalic acid,7038,DTXSID9060528,[O-][N+](=O)c1cccc(c1C(O)=O)C(O)=O,"InChI=1S/C8H5NO6/c10-7(11)4-2-1-3-5(9(14)15)6(4)8(12)13/h1-3H,(H,10,11)(H,12,13)",KFIRODWJCYBBHY-UHFFFAOYSA-N,?,,"HANSCH,C ET AL. (1995)",0.75
102447,603-34-9,603-34-9,[H]C1=C([H])C([H])=C(N(C2=C([H])C([H])=C([H])C([H])=C2[H])C2=C([H])C([H])=C([H])C([H])=C2[H])C([H])=C1[H],TRIPHENYLAMINE,Triphenylamine,"N,N-diphenylaniline",7039,DTXSID4022076,c1ccccc1N(c1ccccc1)c1ccccc1,InChI=1S/C18H15N/c1-4-10-16(11-5-1)19(17-12-6-2-7-13-17)18-14-8-3-9-15-18/h1-15H,ODHXBMXNKOYIBV-UHFFFAOYSA-N,?,,"HANSCH,C ET AL. (1995)",5.74
102450,603-76-9,603-76-9,[H]C1=C([H])C2=C(C([H])=C1[H])N(C([H])([H])[H])C([H])=C2[H],1-METHYLINDOLE,"1H-Indole, 1-methyl-",1-Methylindole,7041,DTXSID3060534,C[n]1ccc2ccccc12,"InChI=1S/C9H9N/c1-10-7-6-8-4-2-3-5-9(8)10/h2-7H,1H3",BLRHMMGNCXNXJL-UHFFFAOYSA-N,?,,"HANSCH,C ET AL. (1995)",2.72
102451,604-44-4,604-44-4,[H]OC1=C([H])C([H])=C(Cl)C2=C([H])C([H])=C([H])C([H])=C12,4-CHLORO-1-NAPHTHOL,"1-Naphthalenol, 4-chloro-",4-chloronaphthalen-1-ol,7042,DTXSID3060536,Oc1ccc(Cl)c2ccccc21,"InChI=1S/C10H7ClO/c11-9-5-6-10(12)8-4-2-1-3-7(8)9/h1-6,12H",LVSPDZAGCBEQAV-UHFFFAOYSA-N,?,,"HANSCH,C ET AL. (1995)",3.94
102452,604-68-2,83-87-4,[H]C([H])([H])C(=O)OC([H])([H])C1([H])OC([H])(OC(=O)C([H])([H])[H])C([H])(OC(=O)C([H])([H])[H])C([H])(OC(=O)C([H])([H])[H])C1([H])OC(=O)C([H])([H])[H],".ALPHA.-D-GLUCOPYRANOSE, PENTAACETATE","D-Glucopyranose, pentaacetate","[(3R,4S,5R,6R)-2,3,5-triacetyloxy-6-(acetyloxymethyl)oxan-4-yl] acetate",7043,DTXSID70232114,CC(=O)OCC1OC(OC(C)=O)C(OC(C)=O)C(OC(C)=O)C1OC(C)=O,"InChI=1S/C16H22O11/c1-7(17)22-6-12-13(23-8(2)18)14(24-9(3)19)15(25-10(4)20)16(27-12)26-11(5)21/h12-16H,6H2,1-5H3",LPTITAGPBXDDGR-UHFFFAOYSA-N,?,,"HANSCH,C ET AL. (1995)",0.63
102454,605-45-8,605-45-8,[H]C1=C([H])C([H])=C(C(=O)OC([H])(C([H])([H])[H])C([H])([H])[H])C(C(=O)OC([H])(C([H])([H])[H])C([H])([H])[H])=C1[H],DI-I-PROPYL PHTHALATE,Diisopropyl phthalate,"dipropan-2-yl benzene-1,2-dicarboxylate",7045,DTXSID2040731,CC(C)OC(=O)c1ccccc1C(=O)OC(C)C,"InChI=1S/C14H18O4/c1-9(2)17-13(15)11-7-5-6-8-12(11)14(16)18-10(3)4/h5-10H,1-4H3",QWDBCIAVABMJPP-UHFFFAOYSA-N,?,,"HANSCH,C ET AL. (1995)",2.83
102455,605-71-0,605-71-0,[H]C1=C([H])C2=C([N+](=O)[O-])C([H])=C([H])C([H])=C2C([N+](=O)[O-])=C1[H],"NAPHTHALENE, 1,5-DINITRO-","1,5-Dinitronaphthalene","1,5-dinitronaphthalene",7046,DTXSID4025165,[O-][N+](=O)c1cccc2c(cccc21)[N+]([O-])=O,InChI=1S/C10H6N2O4/c13-11(14)9-5-1-3-7-8(9)4-2-6-10(7)12(15)16/h1-6H,ZUTCJXFCHHDFJS-UHFFFAOYSA-N,?,,"DEBNATH,AK ET AL. (1992)",2.58
102456,605-93-6,605-93-6,[H]C1=C([H])C(=O)C2=C([H])C(C([H])([H])[H])=C([H])C([H])=C2C1=O,"6-METHYL-1,4-NAPHTHOQUINONE","6-Methyl-1,4-naphthoquinone",C11H8O2,7047,DTXSID80344717,Cc1cc2c(cc1)C(=O)C=CC2=O,"InChI=1S/C11H8O2/c1-7-2-3-8-9(6-7)11(13)5-4-10(8)12/h2-6H,1H3",OPKFWRVRCVCMJH-UHFFFAOYSA-N,?,,"HANSCH,C ET AL. (1995)",2.1
102458,605-99-2,605-99-2,[H]N1C(=O)C2=C(N([H])C(=O)N2[H])N(C([H])([H])[H])C1=O,3-METHYL URIC ACID,"4,9-Dihydro-3-methyl-1H-purine-2,6,8(3H)-trione","3-methyl-7,9-dihydropurine-2,6,8-trione",7049,DTXSID50209243,CN1C2NC(=O)NC=2C(=O)NC1=O,"InChI=1S/C6H6N4O3/c1-10-3-2(7-5(12)8-3)4(11)9-6(10)13/h1H3,(H2,7,8,12)(H,9,11,13)",ODCYDGXXCHTFIR-UHFFFAOYSA-N,?,,"GASPARI,F & BONATI,M (1987)",-1.08
102459,606-20-2,606-20-2,[H]C1=C([H])C([N+](=O)[O-])=C(C([H])([H])[H])C([N+](=O)[O-])=C1[H],"2,6-DINITROTOLUENE","2,6-Dinitrotoluene","2-methyl-1,3-dinitrobenzene",7050,DTXSID5020528,Cc1c(cccc1[N+]([O-])=O)[N+]([O-])=O,"InChI=1S/C7H6N2O4/c1-5-6(8(10)11)3-2-4-7(5)9(12)13/h2-4H,1H3",XTRDKALNCIHHNI-UHFFFAOYSA-N,?,,"NAKAGAWA,Y ET AL. (1992)",2.1
102460,606-22-4,606-22-4,[H]C1=C([H])C([N+](=O)[O-])=C(N([H])[H])C([N+](=O)[O-])=C1[H],"2,6-DINITROANILINE","2,6-Dinitroaniline","2,6-Dinitroaniline",7051,DTXSID70209402,Nc1c(cccc1[N+]([O-])=O)[N+]([O-])=O,"InChI=1S/C6H5N3O4/c7-6-4(8(10)11)2-1-3-5(6)9(12)13/h1-3H,7H2",QFUSCYRJMXLNRB-UHFFFAOYSA-N,?,,"HANSCH,C ET AL. (1995)",1.79
102462,606-25-7,89456-57-5,[H]C1=C([H])C([H])=C2C(=C1[H])C([H])=C([H])C([H])=C2S(=O)(=O)N([H])[H],1-NAPHTHALENESULFONAMIDE,Naphthalenesulfonamide,naphthalene-1-sulfonamide,7053,DTXSID50237723,NS(=O)(=O)c1cccc2ccccc21,"InChI=1S/C10H9NO2S/c11-14(12,13)10-7-3-5-8-4-1-2-6-9(8)10/h1-7H,(H2,11,12,13)",ZFIFHAKCBWOSRN-UHFFFAOYSA-N,?,,"ALCORN,CR ET AL. (1993)",1.55
102463,606-26-8,606-26-8,[H]C1=C([H])C([H])=C([N+](=O)[O-])C(C(=O)N([H])N([H])[H])=C1[H],"BENZOYLHYDRAZINE, O-NITRO",o-Nitrobenzohydrazide,2-nitrobenzohydrazide,7054,DTXSID30209403,NNC(=O)c1ccccc1[N+]([O-])=O,"InChI=1S/C7H7N3O3/c8-9-7(11)5-3-1-2-4-6(5)10(12)13/h1-4H,8H2,(H,9,11)",LYGGDXLOJMNFBV-UHFFFAOYSA-N,?,,"HANSCH,C ET AL. (1995)",-0.54
102464,606-27-9,606-27-9,[H]C1=C([H])C(C(=O)OC([H])([H])[H])=C([N+](=O)[O-])C([H])=C1[H],"BENZOIC ACID, 2-NITRO-, METHYL ESTER","Benzoic acid, 2-nitro-, methyl ester",Methyl 2-nitrobenzoate,7055,DTXSID7060548,COC(=O)c1ccccc1[N+]([O-])=O,"InChI=1S/C8H7NO4/c1-13-8(10)6-4-2-3-5-7(6)9(11)12/h2-5H,1H3",AOXPHVNMBPFOFS-UHFFFAOYSA-N,?,,"SOTOMATSU,T ET AL. (1993)",1.66
102466,606-37-1,606-37-1,[H]C1=C([H])C2=C([H])C([N+](=O)[O-])=C([H])C([N+](=O)[O-])=C2C([H])=C1[H],"NAPHTHALENE, 1,3-DINITRO-","1,3-Dinitronaphthalene","1,3-dinitronaphthalene",7057,DTXSID9025164,[O-][N+](=O)c1cc2ccccc2c(c1)[N+]([O-])=O,InChI=1S/C10H6N2O4/c13-11(14)8-5-7-3-1-2-4-9(7)10(6-8)12(15)16/h1-6H,ULALSFRIGPMWRS-UHFFFAOYSA-N,?,,"DEBNATH,AK ET AL. (1992)",2.83
102467,606-38-2,606-38-2,[H]C1=C([N+](=O)[O-])C(N([H])C(=O)C([H])([H])[H])=C(C([H])([H])[H])C([H])=C1C([H])([H])[H],"2,4-DIME 6-NO2 ACETANILIDE","N-(2,4-dimethyl-6-nitrophenyl)acetamide",C10H12N2O3,7058,DTXSID90277784,CC(=O)Nc1c(cc(C)cc1C)[N+]([O-])=O,"InChI=1S/C10H12N2O3/c1-6-4-7(2)10(11-8(3)13)9(5-6)12(14)15/h4-5H,1-3H3,(H,11,13)",PXXMBAOADHXJSE-UHFFFAOYSA-N,?,,"NAKAGAWA,Y ET AL. (1992)",1.18
102468,606-43-9,606-43-9,[H]C1=C([H])C2=C([H])C([H])=C([H])C([H])=C2N(C([H])([H])[H])C1=O,1-METHYL-2(H)-QUINOLINONE,"2(1H)-Quinolinone, 1-methyl-",1-methylquinolin-2-one,7059,DTXSID1060552,CN1C(=O)C=Cc2ccccc12,"InChI=1S/C10H9NO/c1-11-9-5-3-2-4-8(9)6-7-10(11)12/h2-7H,1H3",QYEMNJMSULGQRD-UHFFFAOYSA-N,?,,"HANSCH,C ET AL. (1995)",1.45
102470,607-34-1,607-34-1,[H]C1=C([H])C([H])=C2C(=N1)C([H])=C([H])C([H])=C2[N+](=O)[O-],5-NITROQUINOLINE,5-Nitroquinoline,5-Nitroquinoline,7061,DTXSID8075255,[O-][N+](=O)c1cccc2[n]cccc12,InChI=1S/C9H6N2O2/c12-11(13)9-5-1-4-8-7(9)3-2-6-10-8/h1-6H,NDDZXHOCOKCNBM-UHFFFAOYSA-N,?,,"HANSCH,C ET AL. (1995)",1.86
102471,607-35-2,607-35-2,[H]C1=NC2=C([N+](=O)[O-])C([H])=C([H])C([H])=C2C([H])=C1[H],8-NITROQUINOLINE,8-Nitroquinoline,8-nitroquinoline,7062,DTXSID6020985,[O-][N+](=O)c1cccc2ccc[n]c21,InChI=1S/C9H6N2O2/c12-11(13)8-5-1-3-7-4-2-6-10-9(7)8/h1-6H,OQHHSGRZCKGLCY-UHFFFAOYSA-N,?,,"HANSCH,C ET AL. (1995)",1.4
102472,607-57-8,607-57-8,[H]C1=C([H])C([H])=C2C(=C1[H])C1=C([H])C([H])=C([N+](=O)[O-])C([H])=C1C2([H])[H],2-NITROFLUORENE,2-Nitrofluorene,2-nitro-9H-fluorene,7063,DTXSID2020971,[O-][N+](=O)c1cc2Cc3ccccc3-c2cc1,"InChI=1S/C13H9NO2/c15-14(16)11-5-6-13-10(8-11)7-9-3-1-2-4-12(9)13/h1-6,8H,7H2",XFOHWECQTFIEIX-UHFFFAOYSA-N,?,,"DEBNATH,AK & HANSCH,C (1992)",3.37
102474,607-90-9,607-90-9,[H]OC1=C(C(=O)OC([H])([H])C([H])([H])C([H])([H])[H])C([H])=C([H])C([H])=C1[H],"BENZOIC ACID, 2-HYDROXY-, PROPYL ESTER",Propyl salicylate,propyl 2-hydroxybenzoate,7065,DTXSID3046790,CCCOC(=O)c1ccccc1O,"InChI=1S/C10H12O3/c1-2-7-13-10(12)8-5-3-4-6-9(8)11/h3-6,11H,2,7H2,1H3",LZFIOSVZIQOVFW-UHFFFAOYSA-N,?,,"KORENMAN,YI & DANILOV,VN (1990)",3.8
102475,607-99-8,607-99-8,[H]C1=C(Br)C([H])=C(Br)C(OC([H])([H])[H])=C1Br,"2,4,6-TRIBROMOANISOLE","2,4,6-Tribromoanisole","1,3,5-tribromo-2-methoxybenzene",7066,DTXSID1060558,COc1c(Br)cc(Br)cc1Br,"InChI=1S/C7H5Br3O/c1-11-7-5(9)2-4(8)3-6(7)10/h2-3H,1H3",YXTRCOAFNXQTKL-UHFFFAOYSA-N,?,,SANGSTER (1993),4.48
102476,608-08-2,608-08-2,[H]C1=C([H])C([H])=C2C(=C1[H])C(OC(=O)C([H])([H])[H])=C([H])N2[H],"INDOLE-3-OL,ACETATE ESTER",3-Indoxyl acetate,1H-indol-3-yl acetate,7067,DTXSID6060559,CC(=O)Oc1c[nH]c2ccccc12,"InChI=1S/C10H9NO2/c1-7(12)13-10-6-11-9-5-3-2-4-8(9)10/h2-6,11H,1H3",JBOPQACSHPPKEP-UHFFFAOYSA-N,?,,"HANSCH,C ET AL. (1995)",2.01
102478,608-31-1,608-31-1,[H]C1=C([H])C(Cl)=C(N([H])[H])C(Cl)=C1[H],"2,6-DICHLOROANILINE","2,6-Dichloroaniline","2,6-dichloroaniline",7069,DTXSID5044449,Nc1c(Cl)cccc1Cl,"InChI=1S/C6H5Cl2N/c7-4-2-1-3-5(8)6(4)9/h1-3H,9H2",JDMFXJULNGEPOI-UHFFFAOYSA-N,?,,SANGSTER (1994),2.76
102479,608-33-3,608-33-3,[H]OC1=C(Br)C([H])=C([H])C([H])=C1Br,"2,6-DIBROMOPHENOL","Phenol, 2,6-dibromo-","2,6-Dibromophenol",7070,DTXSID0060561,Oc1c(Br)cccc1Br,"InChI=1S/C6H4Br2O/c7-4-2-1-3-5(8)6(4)9/h1-3,9H",SSIZLKDLDKIHEV-UHFFFAOYSA-N,?,,"SOTOMATSU,T ET AL. (1993)",3.36
102480,608-43-5,608-43-5,[H]OC1=C(C([H])([H])[H])C(C([H])([H])[H])=C(O[H])C([H])=C1[H],"1,4-BENZENEDIOL, 2,3-DIMETHYL-",,,7071,DTXSID50870679,Cc1c(O)ccc(O)c1C,"InChI=1S/C8H10O2/c1-5-6(2)8(10)4-3-7(5)9/h3-4,9-10H,1-2H3",BXJGUBZTZWCMEX-UHFFFAOYSA-N,?,,SANGSTER (1994),1.36
102483,609-19-8,609-19-8,[H]OC1=C([H])C(Cl)=C(Cl)C(Cl)=C1[H],"3,4,5-TRICHLOROPHENOL","3,4,5-Trichlorophenol",C6H3Cl3O,7074,DTXSID4026212,Oc1cc(Cl)c(Cl)c(Cl)c1,"InChI=1S/C6H3Cl3O/c7-4-1-3(10)2-5(8)6(4)9/h1-2,10H",GBNHEBQXJVDXSW-UHFFFAOYSA-N,?,,"HANSCH,C ET AL. (1995)",4.01
102484,609-35-8,609-35-8,[H]C1=C([H])C(C(=O)N([H])[H])=C([H])O1,FURAN-3-CARBOXAMIDE,PUBCHEM_17914258,C5H5NO2,7075,DTXSID20591586,NC(=O)c1ccoc1,"InChI=1S/C5H5NO2/c6-5(7)4-1-2-8-3-4/h1-3H,(H2,6,7)",GOLHZPOXCLTFRB-UHFFFAOYSA-N,?,,"HANSCH,C ET AL. (1995)",0.09
102485,609-38-1,609-38-1,[H]C1=C([H])C([H])=C(C(=O)N([H])[H])O1,FURAN-2-CARBOXAMIDE,2-Furancarboxamide,furan-2-carboxamide,7076,DTXSID0060569,NC(=O)c1ccco1,"InChI=1S/C5H5NO2/c6-5(7)4-2-1-3-8-4/h1-3H,(H2,6,7)",TVFIYRKPCACCNL-UHFFFAOYSA-N,?,,"HANSCH,C ET AL. (1995)",-0.11
102487,609-40-5,609-40-5,[H]C1=C([H])C([H])=C([N+](=O)[O-])S1,2-NITROTHIOPHENE,"Thiophene, 2-nitro-",2-Nitrothiophene,7078,DTXSID9060570,[O-][N+](=O)c1ccc[s]1,InChI=1S/C4H3NO2S/c6-5(7)4-2-1-3-8-4/h1-3H,JIZRGGUCOQKGQD-UHFFFAOYSA-N,?,,"HANSCH,C ET AL. (1995)",1.55
102488,609-66-5,609-66-5,[H]C1=C([H])C([H])=C(C(=O)N([H])[H])C(Cl)=C1[H],2-CHLOROBENZAMIDE,2-Chlorobenzamide,2-chlorobenzamide,7079,DTXSID3052278,NC(=O)c1ccccc1Cl,"InChI=1S/C7H6ClNO/c8-6-4-2-1-3-5(6)7(9)10/h1-4H,(H2,9,10)",RBGDLYUEXLWQBZ-UHFFFAOYSA-N,?,,"NAKAGAWA,Y ET AL. (1992)",0.64
102489,609-72-3,609-72-3,[H]C1=C([H])C(N(C([H])([H])[H])C([H])([H])[H])=C(C([H])([H])[H])C([H])=C1[H],"N,N-DIMETHYL-O-TOLUIDINE","N,N,2-Trimethylaniline","N,N,2-trimethylaniline",7080,DTXSID8052279,Cc1ccccc1N(C)C,"InChI=1S/C9H13N/c1-8-6-4-5-7-9(8)10(2)3/h4-7H,1-3H3",JDEJGVSZUIJWBM-UHFFFAOYSA-N,?,,"HANSCH,C ET AL. (1995)",2.85
102491,610-02-6,610-02-6,[H]OC(=O)C1=C([H])C([H])=C(O[H])C(O[H])=C1O[H],"2,3,4-TRIHYDROXYBENZOIC ACID","2,3,4-Trihydroxybenzoic acid","2,3,4-Trihydroxybenzoic acid",7082,DTXSID20209851,Oc1ccc(C(O)=O)c(O)c1O,"InChI=1S/C7H6O5/c8-4-2-1-3(7(11)12)5(9)6(4)10/h1-2,8-10H,(H,11,12)",BRRSNXCXLSVPFC-UHFFFAOYSA-N,?,,"HANSCH,C ET AL. (1995)",1.05
102492,610-15-1,610-15-1,[H]C1=C([H])C(C(=O)N([H])[H])=C([N+](=O)[O-])C([H])=C1[H],2-NITROBENZAMIDE,2-Nitrobenzamide,2-nitrobenzamide,7083,DTXSID0025733,NC(=O)c1ccccc1[N+]([O-])=O,"InChI=1S/C7H6N2O3/c8-7(10)5-3-1-2-4-6(5)9(11)12/h1-4H,(H2,8,10)",KLGQWSOYKYFBTR-UHFFFAOYSA-N,?,,"SOTOMATSU,T ET AL. (1993)",-0.12
102493,610-39-9,610-39-9,[H]C1=C([H])C(C([H])([H])[H])=C([H])C([N+](=O)[O-])=C1[N+](=O)[O-],"1,2-DINO2 4-METHYL BENZENE","3,4-Dinitrotoluene","4-methyl-1,2-dinitrobenzene",7084,DTXSID8027240,Cc1cc(c(cc1)[N+]([O-])=O)[N+]([O-])=O,"InChI=1S/C7H6N2O4/c1-5-2-3-6(8(10)11)7(4-5)9(12)13/h2-4H,1H3",INYDMNPNDHRJQJ-UHFFFAOYSA-N,?,,"NAKAGAWA,Y ET AL. (1992)",2.08
102495,610-49-1,610-49-1,[H]C1=C([H])C([H])=C2C([H])=C3C(=C([H])C2=C1[H])C([H])=C([H])C([H])=C3N([H])[H],1-ANTHRACENAMINE,1-Aminoanthracene,anthracen-1-amine,7086,DTXSID00209859,Nc1cccc2cc3ccccc3cc21,"InChI=1S/C14H11N/c15-14-7-3-6-12-8-10-4-1-2-5-11(10)9-13(12)14/h1-9H,15H2",YUENFNPLGJCNRB-UHFFFAOYSA-N,?,,"DEBNATH,AK ET AL. (1992)",3.69
102496,610-69-5,610-69-5,[H]C1=C([H])C([H])=C([N+](=O)[O-])C(OC(=O)C([H])([H])[H])=C1[H],O-NITROPHENYL ACETATE,"Acetic acid, 2-nitrophenyl ester",(2-nitrophenyl) acetate,7087,DTXSID7060590,CC(=O)Oc1ccccc1[N+]([O-])=O,"InChI=1S/C8H7NO4/c1-6(10)13-8-5-3-2-4-7(8)9(11)12/h2-5H,1H3",MRCKRGSNLOHYRA-UHFFFAOYSA-N,?,,"HANSCH,C ET AL. (1995)",1.55
102497,610-96-8,610-96-8,[H]C1=C([H])C([H])=C(C(=O)OC([H])([H])[H])C(Cl)=C1[H],METHYL O-CHLOROBENZOATE,Methyl 2-chlorobenzoate,methyl 2-chlorobenzoate,7088,DTXSID8044701,COC(=O)c1ccccc1Cl,"InChI=1S/C8H7ClO2/c1-11-8(10)6-4-2-3-5-7(6)9/h2-5H,1H3",JAVRNIFMYIJXIE-UHFFFAOYSA-N,?,,"HANSCH,C ET AL. (1995)",2.38
102499,610-99-1,610-99-1,[H]OC1=C([H])C([H])=C([H])C([H])=C1C(=O)C([H])([H])C([H])([H])[H],O-HYDROXYPROPIOPHENONE,2'-Hydroxypropiophenone,1-(2-hydroxyphenyl)propan-1-one,7090,DTXSID90209868,CCC(=O)c1ccccc1O,"InChI=1S/C9H10O2/c1-2-8(10)7-5-3-4-6-9(7)11/h3-6,11H,2H2,1H3",KDUWXMIHHIVXER-UHFFFAOYSA-N,?,,"HANSCH,C ET AL. (1995)",2.54
102500,611-03-0,611-03-0,[H]OC(=O)C1=C([H])C([H])=C(N([H])[H])C([H])=C1N([H])[H],"BENZOIC ACID, 2,4-DIAMINO-","2,4-Diaminobenzoic acid","2,4-Diaminobenzoic acid",7091,DTXSID20209972,Nc1ccc(C(O)=O)c(N)c1,"InChI=1S/C7H8N2O2/c8-4-1-2-5(7(10)11)6(9)3-4/h1-3H,8-9H2,(H,10,11)",LDQMZKBIBRAZEA-UHFFFAOYSA-N,?,,SANGSTER (1994),-0.31
102501,611-06-3,611-06-3,[H]C1=C([H])C([N+](=O)[O-])=C(Cl)C([H])=C1Cl,"2,4-DICHLORONITROBENZENE","2,4-Dichloronitrobenzene","2,4-dichloro-1-nitrobenzene",7092,DTXSID3024998,[O-][N+](=O)c1ccc(Cl)cc1Cl,InChI=1S/C6H3Cl2NO2/c7-4-1-2-6(9(10)11)5(8)3-4/h1-3H,QUIMTLZDMCNYGY-UHFFFAOYSA-N,?,,"NIIMI,AJ ET AL. (1989)",3.07
102503,611-13-2,611-13-2,[H]C1=C([H])C([H])=C(C(=O)OC([H])([H])[H])O1,"FUROIC ACID, METHYL ESTER","2-Furancarboxylic acid, methyl ester",methyl furan-2-carboxylate,7094,DTXSID7060598,COC(=O)c1ccco1,"InChI=1S/C6H6O3/c1-8-6(7)5-3-2-4-9-5/h2-4H,1H3",HDJLSECJEQSPKW-UHFFFAOYSA-N,?,,"HANSCH,C ET AL. (1995)",1.0
102504,611-14-3,611-14-3,[H]C1=C([H])C(C([H])([H])[H])=C(C([H])([H])C([H])([H])[H])C([H])=C1[H],1-ETHYL-2-METHYLBENZENE,1-Ethyl-2-methylbenzene,1-ethyl-2-methylbenzene,7095,DTXSID2050403,Cc1ccccc1CC,"InChI=1S/C9H12/c1-3-9-7-5-4-6-8(9)2/h4-7H,3H2,1-2H3",HYFLWBNQFMXCPA-UHFFFAOYSA-N,?,,"HANSCH,C ET AL. (1995)",3.53
102505,611-20-1,611-20-1,[H]OC1=C([H])C([H])=C([H])C([H])=C1C#N,O-CYANOPHENOL,2-Hydroxybenzonitrile,C7H5NO,7096,DTXSID3041661,N#Cc1ccccc1O,"InChI=1S/C7H5NO/c8-5-6-3-1-2-4-7(6)9/h1-4,9H",CHZCERSEMVWNHL-UHFFFAOYSA-N,?,,"HANSCH,C ET AL. (1995)",1.61
102507,611-32-5,611-32-5,[H]C1=NC2=C(C([H])([H])[H])C([H])=C([H])C([H])=C2C([H])=C1[H],8-METHYLQUINOLINE,8-Methylquinoline,8-methylquinoline,7098,DTXSID8020888,Cc1cccc2ccc[n]c21,"InChI=1S/C10H9N/c1-8-4-2-5-9-6-3-7-11-10(8)9/h2-7H,1H3",JRLTTZUODKEYDH-UHFFFAOYSA-N,?,,"HANSCH,C ET AL. (1995)",2.6
102508,611-33-6,611-33-6,[H]C1=NC2=C(Cl)C([H])=C([H])C([H])=C2C([H])=C1[H],8-CHLOROQUINOLINE,"Quinoline, 8-chloro-",8-Chloroquinoline,7099,DTXSID9060601,Clc1cccc2ccc[n]c21,InChI=1S/C9H6ClN/c10-8-5-1-3-7-4-2-6-11-9(7)8/h1-6H,RUSMDMDNFUYZTM-UHFFFAOYSA-N,?,,"HANSCH,C ET AL. (1995)",2.44