ChemID,source_casrn,CAS,SMILES,NAME,preferred_name,iupac,MPID,dsstox_substance_id,Canonical_QSARr,InChI_Code_QSARr,InChI Key_QSARr,Salt_Solvent,Salt_Solvent_ID,Kow Reference,LogP
103320,1437-15-6,NOCAS_871839,[H]C1=NC(/C([H])=C(\[H])C2=C([H])C([H])=C([H])C([H])=N2)=C([H])C([H])=C1[H],"1,2-(DI-(A-PYRIDYL)ETHYLENE",,,7869,DTXSID60871839,c1ccc[n]c1C=Cc1cccc[n]1,InChI=1S/C12H10N2/c1-3-9-13-11(5-1)7-8-12-6-2-4-10-14-12/h1-10H/b8-7+,HKEOCEQLCZEBMK-BQYQJAHWSA-N,?,,"HANSCH,C ET AL. (1995)",2.11
103321,1440-61-5,1440-61-5,[H]C([H])(Cl)C(=O)N1C([H])([H])C([H])([H])OC([H])([H])C1([H])[H],"Morpholine, 4-(chloroacetyl)-","Morpholine, 4-(chloroacetyl)-",2-chloro-1-morpholin-4-ylethanone,7870,DTXSID9073258,O=C(CCl)N1CCOCC1,InChI=1S/C6H10ClNO2/c7-5-6(9)8-1-3-10-4-2-8/h1-5H2,YMQRPXBBBOXHNZ-UHFFFAOYSA-N,?,,"BARRATT,MD (1995)",-0.6
103322,1441-44-7,1441-44-7,[H]C1=NC([H])=C(C([H])([H])C([H])([H])C([H])([H])C([H])([H])N(C([H])([H])[H])C([H])([H])[H])C([H])=C1[H],"4-(N,N-DIME)-3-PYRIDYLBUTYLAMINE",,,7871,DTXSID40876589,CN(C)CCCCc1c[n]ccc1,"InChI=1S/C11H18N2/c1-13(2)9-4-3-6-11-7-5-8-12-10-11/h5,7-8,10H,3-4,6,9H2,1-2H3",MOHZDPHIKXWYJM-UHFFFAOYSA-N,?,,"HANSCH,C ET AL. (1995)",1.49
103324,1443-94-3,1443-94-3,[H]C1=C([H])C(S(=O)(=O)N([H])C(=O)N([H])N2C([H])([H])C([H])([H])C([H])([H])C([H])([H])C2([H])[H])=C([H])C([H])=C1C([H])([H])[H],"UREA, N-(1-PIPERIDINYL)-N'-[(4-METHYLPHENYL)SULF",1-(Piperidyl)-3-(4-tolylsulfonyl)urea,3-(4-methylphenyl)sulfonyl-1-piperidin-1-ylurea,7873,DTXSID70162669,Cc1ccc(cc1)S(=O)(=O)NC(=O)NN1CCCCC1,"InChI=1S/C13H19N3O3S/c1-11-5-7-12(8-6-11)20(18,19)15-13(17)14-16-9-3-2-4-10-16/h5-8H,2-4,9-10H2,1H3,(H2,14,15,17)",KJEOOPXZTLEKJY-UHFFFAOYSA-N,?,,SANGSTER (1993),1.34
103325,1445-69-8,NOCAS_871842,[H]C1=C([H])C([H])=C2C(=O)N([H])N([H])C(=O)C2=C1[H],"1,4-PHTHALAZINEDIONE, 2,3-DIHYDRO",,,7874,DTXSID90871842,O=C1NNC(=O)c2ccccc12,"InChI=1S/C8H6N2O2/c11-7-5-3-1-2-4-6(5)8(12)10-9-7/h1-4H,(H,9,11)(H,10,12)",KGLPWQKSKUVKMJ-UHFFFAOYSA-N,?,,HALL ET AL. (1989),0.11
103326,1445-75-6,1445-75-6,[H]C([H])([H])C([H])(OP(=O)(OC([H])(C([H])([H])[H])C([H])([H])[H])C([H])([H])[H])C([H])([H])[H],"PHOSPHONIC ACID, METHYL-, DIISOPROPYL ESTER",Diisopropyl methylphosphonate,dipropan-2-yl methylphosphonate,7875,DTXSID5024051,CP(=O)(OC(C)C)OC(C)C,"InChI=1S/C7H17O3P/c1-6(2)9-11(5,8)10-7(3)4/h6-7H,1-5H3",WOAFDHWYKSOANX-UHFFFAOYSA-N,?,,"KRIKORIAN,SE ET AL. (1987)",1.03
103329,1451-20-3,1451-20-3,[H]C1=C2OC(C([H])([H])[H])(C([H])([H])[H])C3([H])C([H])([H])C([H])=C(C([H])([H])[H])C([H])([H])C3([H])C2=C(OC([H])([H])[H])C([H])=C1C([H])([H])C([H])([H])C([H])([H])C([H])([H])C([H])([H])[H],"6H-DIBENZO[B,D]PYRAN, 6A,7,10,10A-TETRAHYDRO-1-M",,,7877,DTXSID60875413,CC1CC2C(CC=1)C(C)(C)Oc1cc(CCCCC)cc(OC)c12,"InChI=1S/C22H32O2/c1-6-7-8-9-16-13-19(23-5)21-17-12-15(2)10-11-18(17)22(3,4)24-20(21)14-16/h10,13-14,17-18H,6-9,11-12H2,1-5H3",GRLARWXSTOXAGR-UHFFFAOYSA-N,?,,SANGSTER (1993),8.06
103331,1452-77-3,1452-77-3,[H]C1=C([H])C([H])=C([H])C(C(=O)N([H])[H])=N1,2-PYRIDINECARBOXAMIDE,2-Pyridinecarboxamide,PYRIDINE-2-CARBOXAMIDE,7878,DTXSID4061703,NC(=O)c1cccc[n]1,"InChI=1S/C6H6N2O/c7-6(9)5-3-1-2-4-8-5/h1-4H,(H2,7,9)",IBBMAWULFFBRKK-UHFFFAOYSA-N,?,,"HANSCH,C ET AL. (1995)",0.15
103332,1453-82-3,1453-82-3,[H]C1=NC([H])=C([H])C(C(=O)N([H])[H])=C1[H],I-NICOTINAMIDE,Isonicotinamide,pyridine-4-carboxamide,7879,DTXSID3020756,NC(=O)c1cc[n]cc1,"InChI=1S/C6H6N2O/c7-6(9)5-1-3-8-4-2-5/h1-4H,(H2,7,9)",VFQXVTODMYMSMJ-UHFFFAOYSA-N,?,,"HANSCH,C ET AL. (1995)",-0.28
103334,1455-77-2,1455-77-2,[H]N([H])C1=NN=C(N([H])[H])N1[H],"1H-1,2,4-TRIAZOLE-3,5-DIAMINE",Guanazole,"4H-1,2,4-triazole-3,5-diamine",7881,DTXSID0025367,Nc1[nH]c(N)[n][n]1,"InChI=1S/C2H5N5/c3-1-5-2(4)7-6-1/h(H5,3,4,5,6,7)",PKWIYNIDEDLDCJ-UHFFFAOYSA-N,?,,POMONA (1987),-1.61
103335,1455-84-1,1455-84-1,[H]C1=NC(C2=NC(C([H])([H])[H])=NO2)=C([H])C([H])=C1[H],"5(2-PYRIDYL)-3-ME-1,2,4-OXADIAZOLE","2-(3-Methyl-1,2,4-oxadiazol-5-yl)pyridine",C8H7N3O,7882,DTXSID10341193,Cc1[n]oc([n]1)-c1cccc[n]1,"InChI=1S/C8H7N3O/c1-6-10-8(12-11-6)7-4-2-3-5-9-7/h2-5H,1H3",QFZQBHQQRWUYPK-UHFFFAOYSA-N,?,,"HANSCH,C & LEO,AJ (1985)",0.89
103336,1456-28-6,1456-28-6,[H]C([H])([H])C1([H])OC([H])(C([H])([H])[H])C([H])([H])N(N=O)C1([H])[H],"2,6-DIMETHYL-N-NITROSOMORPHOLINE","Nitroso-2,6-dimethylmorpholine","2,6-dimethyl-4-nitrosomorpholine",7883,DTXSID4021470,CC1CN(CC(C)O1)N=O,"InChI=1S/C6H12N2O2/c1-5-3-8(7-9)4-6(2)10-5/h5-6H,3-4H2,1-2H3",DPYMAXOKJUBANR-UHFFFAOYSA-N,?,,"HANSCH,C ET AL. (1995)",0.32
103338,1460-57-7,1460-57-7,[H]OC1([H])C([H])([H])C([H])([H])C([H])([H])C([H])([H])C1([H])O[H],"1,2-CYCLOHEXANEDIOL-TRANS","trans-1,2-Cyclohexanediol","(1R,2R)-cyclohexane-1,2-diol",7885,DTXSID7075347,OC1CCCCC1O,"InChI=1S/C6H12O2/c7-5-3-1-2-4-6(5)8/h5-8H,1-4H2",PFURGBBHAOXLIO-UHFFFAOYSA-N,?,,"HANSCH,C ET AL. (1995)",0.08
103341,1464-44-4,2871-15-0,[H]OC([H])([H])C1([H])OC([H])(OC2=C([H])C([H])=C([H])C([H])=C2[H])C([H])(O[H])C([H])(O[H])C1([H])O[H],"BETA-D-GLUCOPYRANOSIDE, PHENYL",PUBCHEM_57369634,C12H16O6,7886,DTXSID30724540,OCC1OC(Oc2ccccc2)C(O)C(O)C1O,"InChI=1S/C12H16O6/c13-6-8-9(14)10(15)11(16)12(18-8)17-7-4-2-1-3-5-7/h1-5,8-16H,6H2",NEZJDVYDSZTRFS-UHFFFAOYSA-N,?,,"HANSCH,C ET AL. (1995)",-0.75
103343,1466-76-8,1466-76-8,[H]OC(=O)C1=C(OC([H])([H])[H])C([H])=C([H])C([H])=C1OC([H])([H])[H],"2,6-DIMETHOXYBENZOIC ACID","2,6-Dimethoxybenzoic acid","2,6-dimethoxybenzoic acid",7888,DTXSID4046999,COc1cccc(OC)c1C(O)=O,"InChI=1S/C9H10O4/c1-12-6-4-3-5-7(13-2)8(6)9(10)11/h3-5H,1-2H3,(H,10,11)",MBIZFBDREVRUHY-UHFFFAOYSA-N,?,,"HANSCH,C ET AL. (1995)",0.66
103345,1467-34-1,1467-34-1,[H]C1=C(N([H])C(=O)C([H])([H])[H])C([H])=C(C([H])([H])[H])C(C([H])([H])[H])=C1C([H])([H])[H],"3,4,5-TRIMETHYLACETANILIDE",,,7890,DTXSID50876499,CC(=O)Nc1cc(C)c(C)c(C)c1,"InChI=1S/C11H15NO/c1-7-5-11(12-10(4)13)6-8(2)9(7)3/h5-6H,1-4H3,(H,12,13)",AYPHGQFINZMFCT-UHFFFAOYSA-N,?,,"NAKAGAWA,Y ET AL. (1992)",2.5
103346,1467-79-4,1467-79-4,[H]C([H])([H])N(C#N)C([H])([H])[H],DIMETHYL CYANAMIDE,Dimethyl cyanamide,dimethylcyanamide,7891,DTXSID9025116,CN(C)C#N,InChI=1S/C3H6N2/c1-5(2)3-4/h1-2H3,OAGOUCJGXNLJNL-UHFFFAOYSA-N,?,,"HANSCH,C ET AL. (1995)",-0.15
103347,1468-83-3,1468-83-3,[H]C1=C([H])C(C(=O)C([H])([H])[H])=C([H])S1,3-ACETYLTHIOPHENE,Methyl 3-thienyl ketone,1-thiophen-3-ylethanone,7892,DTXSID10163498,CC(=O)c1cc[s]c1,"InChI=1S/C6H6OS/c1-5(7)6-2-3-8-4-6/h2-4H,1H3",RNIDWJDZNNVFDY-UHFFFAOYSA-N,?,,"HANSCH,C ET AL. (1995)",1.24
103349,1470-44-6,1470-44-6,[H]C1=C([H])C([H])=C2C(=O)C([H])(C3=C([H])C(Cl)=C([H])C([H])=C3[H])C(=O)C2=C1[H],"1H-INDENE-1,3(2H)-DIONE, 2-(3-CHLOROPHENYL)-",PUBCHEM_23274867,C15H9ClO2,7894,DTXSID10632316,O=C1C(c2cc(Cl)ccc2)C(=O)c2ccccc12,"InChI=1S/C15H9ClO2/c16-10-5-3-4-9(8-10)13-14(17)11-6-1-2-7-12(11)15(13)18/h1-8,13H",CXVIGZJKUNHFRZ-UHFFFAOYSA-N,?,,SANGSTER (1994),3.61
103350,1477-50-5,1477-50-5,[H]OC(=O)C1=C([H])C2=C([H])C([H])=C([H])C([H])=C2N1[H],INDOLE-2-CARBOXYLIC ACID,Indole-2-carboxylic acid,1H-Indole-2-carboxylic acid,7895,DTXSID20163782,OC(=O)c1cc2ccccc2[nH]1,"InChI=1S/C9H7NO2/c11-9(12)8-5-6-3-1-2-4-7(6)10-8/h1-5,10H,(H,11,12)",HCUARRIEZVDMPT-UHFFFAOYSA-N,?,,"HANSCH,C ET AL. (1995)",2.31
103351,1480-19-9,1480-19-9,[H]C1=C([H])C([H])=C(N2C([H])([H])C([H])([H])N(C([H])([H])C([H])([H])C([H])([H])C(=O)C3=C([H])C([H])=C(F)C([H])=C3[H])C([H])([H])C2([H])[H])C(OC([H])([H])[H])=C1[H],Fluanisone,Fluanisone,1-(4-fluorophenyl)-4-[4-(2-methoxyphenyl)piperazin-1-yl]butan-1-one,7896,DTXSID4045711,COc1ccccc1N1CCN(CCCC(=O)c2ccc(F)cc2)CC1,"InChI=1S/C21H25FN2O2/c1-26-21-7-3-2-5-19(21)24-15-13-23(14-16-24)12-4-6-20(25)17-8-10-18(22)11-9-17/h2-3,5,7-11H,4,6,12-16H2,1H3",IRYFCWPNDIUQOW-UHFFFAOYSA-N,?,,"KUIPERS,W ET AL. (1997)",3.6
103353,1492-96-2,1492-96-2,[H]C1=C([H])C(C2=NC([H])([H])C(=O)N([H])C3=C2C([H])=C(Cl)C([H])=C3[H])=C([H])C([H])=C1F,"1,4-BENZODIAZEPIN-2-ONE,5(4FPH..",,,7898,DTXSID20877675,O=C1CN=C(c2cc(Cl)ccc2N1)c1ccc(F)cc1,"InChI=1S/C15H10ClFN2O/c16-10-3-6-13-12(7-10)15(18-8-14(20)19-13)9-1-4-11(17)5-2-9/h1-7H,8H2,(H,19,20)",DSKVVFWHSNMUEI-UHFFFAOYSA-N,?,,"HANSCH,C ET AL. (1995)",2.9
103354,1493-27-2,1493-27-2,[H]C1=C([H])C([H])=C([N+](=O)[O-])C(F)=C1[H],O-FLUORONITROBENZENE,"Benzene, 1-fluoro-2-nitro-",1-Fluoro-2-nitrobenzene,7899,DTXSID1061730,[O-][N+](=O)c1ccccc1F,InChI=1S/C6H4FNO2/c7-5-3-1-2-4-6(5)8(9)10/h1-4H,PWKNBLFSJAVFAB-UHFFFAOYSA-N,?,,"HANSCH,C ET AL. (1995)",1.69
103355,1498-96-0,1498-96-0,[H]OC(=O)C1=C([H])C([H])=C(OC([H])([H])C([H])([H])C([H])([H])C([H])([H])[H])C([H])=C1[H],P-BUTOXYBENZOIC ACID,4-Butoxybenzoic acid,4-Butoxybenzoic acid,7900,DTXSID50164388,CCCCOc1ccc(cc1)C(O)=O,"InChI=1S/C11H14O3/c1-2-3-8-14-10-6-4-9(5-7-10)11(12)13/h4-7H,2-3,8H2,1H3,(H,12,13)",LAUFPZPAKULAGB-UHFFFAOYSA-N,?,,"HANSCH,C ET AL. (1995)",3.57
103357,1501-05-9,1501-05-9,[H]OC(=O)C([H])([H])C([H])([H])C([H])([H])C(=O)C1=C([H])C([H])=C([H])C([H])=C1[H],"BUTANOIC ACID, 4-BENZOYL-",4-Benzoylbutyric acid,5-oxo-5-phenylpentanoic acid,7902,DTXSID50164469,OC(=O)CCCC(=O)c1ccccc1,"InChI=1S/C11H12O3/c12-10(7-4-8-11(13)14)9-5-2-1-3-6-9/h1-3,5-6H,4,7-8H2,(H,13,14)",SHKWSBAVRQZYLE-UHFFFAOYSA-N,?,,SANGSTER (1994),1.49
103358,1502-22-3,NOCAS_870879,[H]C1=C(C2([H])C(=O)C([H])([H])C([H])([H])C([H])([H])C2([H])[H])C([H])([H])C([H])([H])C([H])([H])C1([H])[H],"CYCLOHEXANONE, 2-(1-CYCLOHEXEN-1-YL)-",,,7903,DTXSID30870879,O=C1CCCCC1C1CCCCC=1,"InChI=1S/C12H18O/c13-12-9-5-4-8-11(12)10-6-2-1-3-7-10/h6,11H,1-5,7-9H2",GVNVAWHJIKLAGL-UHFFFAOYSA-N,?,,CHEMICALS INSPECTION AND TESTING INSTITU (1992),3.17
103359,1504-26-3,1504-26-3,[H]C1=C([H])C([H])=C(C([H])([H])C(=O)N([H])C2=C([N+](=O)[O-])C([H])=C([H])C([H])=C2[H])C([H])=C1[H],"BENZENEACETAMIDE, N-(2-NITROPHENYL)-",,,7904,DTXSID10877422,[O-][N+](=O)c1ccccc1NC(=O)Cc1ccccc1,"InChI=1S/C14H12N2O3/c17-14(10-11-6-2-1-3-7-11)15-12-8-4-5-9-13(12)16(18)19/h1-9H,10H2,(H,15,17)",DRHZHHXNOKNSMS-UHFFFAOYSA-N,?,,"YAMAGAMI,C ET AL. (1984)",2.73
103361,1513-31-1,1513-31-1,[H]C1=C([H])C(N([H])S(=O)(=O)C([H])(F)F)=C([H])C([H])=C1Cl,"DIFLUOROMETHANESULFONANILIDE,P-CL",,,7906,DTXSID30879049,O=S(=O)(Nc1ccc(Cl)cc1)C(F)F,"InChI=1S/C7H6ClF2NO2S/c8-5-1-3-6(4-2-5)11-14(12,13)7(9)10/h1-4,7,11H",IMLMTSWLKOTGAE-UHFFFAOYSA-N,?,,"HANSCH,C ET AL. (1995)",2.84
103362,1513-65-1,1513-65-1,[H]C1=C(F)N=C(F)C([H])=C1[H],"2,6-DIFLUOROPYRIDINE","2,6-Difluoropyridine","2,6-DIFLUOROPYRIDINE",7907,DTXSID80164755,Fc1cccc(F)[n]1,InChI=1S/C5H3F2N/c6-4-2-1-3-5(7)8-4/h1-3H,MBTGBRYMJKYYOE-UHFFFAOYSA-N,?,,"HANSCH,C ET AL. (1995)",1.17
103363,1515-85-1,1515-85-1,[H]C1=C([H])C(C([H])([H])OC([H])([H])[H])=C([H])C([H])=C1C#N,"BENZONITRILE, 4-(METHOXYMETHYL)-",PUBCHEM_13285141,C9H9NO,7908,DTXSID70534726,COCc1ccc(cc1)C#N,"InChI=1S/C9H9NO/c1-11-7-9-4-2-8(6-10)3-5-9/h2-5H,7H2,1H3",RUWUCOYLNIGKRD-UHFFFAOYSA-N,?,,SANGSTER (1993),1.23
103365,1517-69-7,1517-69-7,[H]OC([H])(C1=C([H])C([H])=C([H])C([H])=C1[H])C([H])([H])[H],1-PHENYLETHANOL,"Benzenemethanol, alpha-methyl-, (R)-",(1R)-1-PHENYLETHANOL,7910,DTXSID00164853,CC(O)c1ccccc1,"InChI=1S/C8H10O/c1-7(9)8-5-3-2-4-6-8/h2-7,9H,1H3",WAPNOHKVXSQRPX-UHFFFAOYSA-N,?,,"HANSCH,C ET AL. (1995)",1.42
103367,1523-06-4,1523-06-4,[H]C1=C([H])C([N+](=O)[O-])=C([H])C(OC(=O)C([H])([H])[H])=C1[H],M-NITROPHENYL ACETATE,3-Nitrophenyl acetate,(3-nitrophenyl) acetate,7911,DTXSID0074550,CC(=O)Oc1cc(ccc1)[N+]([O-])=O,"InChI=1S/C8H7NO4/c1-6(10)13-8-4-2-3-7(5-8)9(11)12/h2-5H,1H3",HRMRLUUZPLAPAS-UHFFFAOYSA-N,?,,"HANSCH,C ET AL. (1995)",1.82
103369,1532-84-9,1532-84-9,[H]C1=NC(N([H])[H])=C2C([H])=C([H])C([H])=C([H])C2=C1[H],1-ISOQUINOLINAMINE,1-Aminoisoquinoline,Isoquinolin-1-amine,7912,DTXSID40165283,Nc1[n]ccc2ccccc21,"InChI=1S/C9H8N2/c10-9-8-4-2-1-3-7(8)5-6-11-9/h1-6H,(H2,10,11)",OSILBMSORKFRTB-UHFFFAOYSA-N,?,,"HANSCH,C ET AL. (1995)",1.9
103371,1538-74-5,1538-74-5,[H]C1=C([H])C([H])=C(N([H])C(=O)OC([H])([H])C([H])([H])C([H])([H])C([H])([H])[H])C([H])=C1[H],BUTYL N-PHENYLCARBAMATE,Phenylcarbamic acid butyl ester,Butyl N-phenylcarbamate,7914,DTXSID60165422,CCCCOC(=O)Nc1ccccc1,"InChI=1S/C11H15NO2/c1-2-3-9-14-11(13)12-10-7-5-4-6-8-10/h4-8H,2-3,9H2,1H3,(H,12,13)",ZTIMKJROOYMUMU-UHFFFAOYSA-N,?,,"BRIGGS,GG (1981)",3.3
103372,1542-59-2,1542-59-2,[H]C1=C([H])C(N2C(N([H])[H])=NC(N([H])[H])=NC2(C([H])([H])[H])C([H])([H])[H])=C([H])C([H])=C1F,"4,6-NH2-2,2-DIME-1(4FPH)S-TRIAZINE",CHEMBL7005,C11H14FN5,7915,DTXSID90330904,CC1(C)N=C(N)N=C(N)N1c1ccc(F)cc1,"InChI=1S/C11H14FN5/c1-11(2)16-9(13)15-10(14)17(11)8-5-3-7(12)4-6-8/h3-6H,1-2H3,(H4,13,14,15,16)",IFLSKJWEERCMHE-UHFFFAOYSA-N,?,,"HANSCH,C ET AL. (1995)",0.37
103373,1547-10-0,1547-10-0,[H]C1=C(Cl)C(S(=O)(=O)N([H])[H])=C([H])C2=C1N([H])C([H])(C(F)(F)F)N([H])S2(=O)=O,3-CF3 HYDROCHLOROTHIAZIDE,,,7916,DTXSID50875780,NS(=O)(=O)c1cc2c(cc1Cl)NC(NS2(=O)=O)C(F)(F)F,"InChI=1S/C8H7ClF3N3O4S2/c9-3-1-4-6(2-5(3)20(13,16)17)21(18,19)15-7(14-4)8(10,11)12/h1-2,7,14-15H,(H2,13,16,17)",DHLPOWRBAAQGNG-UHFFFAOYSA-N,?,,SANGSTER (1994),0.49
103375,1552-94-9,1552-94-9,[H]OC(=O)/C([H])=C([H])/C([H])=C(\[H])C1=C([H])C([H])=C([H])C([H])=C1[H],"2,4-PENTADIENOIC ACID, 5-PHENYL-","2,4-Pentadienoic acid, 5-phenyl-",,7918,DTXSID2061771,OC(=O)C=CC=Cc1ccccc1,"InChI=1S/C11H10O2/c12-11(13)9-5-4-8-10-6-2-1-3-7-10/h1-9H,(H,12,13)/b8-4+,9-5+",FEIQOMCWGDNMHM-KBXRYBNXSA-N,?,,"HANSCH,C ET AL. (1995)",3.15
103376,1553-60-2,1553-60-2,[H]OC(=O)C([H])([H])C1=C([H])C([H])=C(C([H])([H])C([H])(C([H])([H])[H])C([H])([H])[H])C([H])=C1[H],"BENZENEACETIC ACID, 4-(2-METHYLPROPYL)-",Ibufenac,[4-(2-methylpropyl)phenyl]acetic acid,7919,DTXSID0044107,CC(C)Cc1ccc(CC(O)=O)cc1,"InChI=1S/C12H16O2/c1-9(2)7-10-3-5-11(6-4-10)8-12(13)14/h3-6,9H,7-8H2,1-2H3,(H,13,14)",CYWFCPPBTWOZSF-UHFFFAOYSA-N,?,,SANGSTER (1994),3.35
103377,1555-94-8,1555-94-8,[H]C1=C([H])C([H])=C2C(=N1)C(OC([H])([H])C([H])([H])[H])=C([H])C([H])=C2[H],8-Ethoxyquinoline,8-Ethoxyquinoline,8-Ethoxyquinoline,7920,DTXSID80165909,CCOc1cccc2ccc[n]c21,"InChI=1S/C11H11NO/c1-2-13-10-7-3-5-9-6-4-8-12-11(9)10/h3-8H,2H2,1H3",UGRGZOJMYMJWLZ-UHFFFAOYSA-N,?,,"HANSCH,C ET AL. (1995)",2.25
103379,1563-38-8,1563-38-8,[H]OC1=C2OC(C([H])([H])[H])(C([H])([H])[H])C([H])([H])C2=C([H])C([H])=C1[H],CARBOFURAN PHENOL,"2,3-Dihydro-2,2-dimethyl-7-benzofuranol","2,2-dimethyl-2,3-dihydro-1-benzofuran-7-ol",7922,DTXSID2027414,CC1(C)Cc2cccc(O)c2O1,"InChI=1S/C10H12O2/c1-10(2)6-7-4-3-5-8(11)9(7)12-10/h3-5,11H,6H2,1-2H3",WJGPNUBJBMCRQH-UHFFFAOYSA-N,?,,"HANSCH,C ET AL. (1995)",2.08
103380,1563-66-2,1563-66-2,[H]C1=C([H])C(OC(=O)N([H])C([H])([H])[H])=C2OC(C([H])([H])[H])(C([H])([H])[H])C([H])([H])C2=C1[H],CARBOFURAN,Carbofuran,"2,2-dimethyl-2,3-dihydro-1-benzofuran-7-yl methylcarbamate",7923,DTXSID9020249,CC1(C)Cc2cccc(OC(=O)NC)c2O1,"InChI=1S/C12H15NO3/c1-12(2)7-8-5-4-6-9(10(8)16-12)15-11(14)13-3/h4-6H,7H2,1-3H3,(H,13,14)",DUEPRVBVGDRKAG-UHFFFAOYSA-N,?,,"HANSCH,C ET AL. (1995)",2.32
103381,1565-17-9,1565-17-9,[H]C1=C([H])C(S(=O)(=O)N([H])[H])=C([H])C([H])=C1C(=O)C([H])([H])[H],P-ACETYLBENZENESULFONAMIDE,"Benzenesulfonamide, p-acetyl- (6CI,7CI,8CI)",4-Acetylbenzenesulfonamide,7924,DTXSID80166092,CC(=O)c1ccc(cc1)S(N)(=O)=O,"InChI=1S/C8H9NO3S/c1-6(10)7-2-4-8(5-3-7)13(9,11)12/h2-5H,1H3,(H2,9,11,12)",CSATVXJBGFVJES-UHFFFAOYSA-N,?,,"HANSCH,C ET AL. (1995)",0.2
103383,1568-70-3,1568-70-3,[H]OC1=C([H])C([H])=C(OC([H])([H])[H])C([H])=C1[N+](=O)[O-],4-METHOXY-2-NITROPHENOL,"Phenol, 4-methoxy-2-nitro-",4-METHOXY-2-NITROPHENOL,7926,DTXSID80166133,COc1cc(c(O)cc1)[N+]([O-])=O,"InChI=1S/C7H7NO4/c1-12-5-2-3-7(9)6(4-5)8(10)11/h2-4,9H,1H3",YBUGOACXDPDUIR-UHFFFAOYSA-N,?,,"SCHWARZENBACH,RP ET AL. (1988)",2.02
103384,1570-45-2,1570-45-2,[H]C1=NC([H])=C([H])C(C(=O)OC([H])([H])C([H])([H])[H])=C1[H],"ISONICOTINIC ACID, ETHYL ESTER","4-Pyridinecarboxylic acid, ethyl ester",ethyl pyridine-4-carboxylate,7927,DTXSID6061789,CCOC(=O)c1cc[n]cc1,"InChI=1S/C8H9NO2/c1-2-11-8(10)7-3-5-9-6-4-7/h3-6H,2H2,1H3",MCRPKBUFXAKDKI-UHFFFAOYSA-N,?,,"HANSCH,C ET AL. (1995)",1.43
103385,1570-64-5,1570-64-5,[H]OC1=C([H])C([H])=C(Cl)C([H])=C1C([H])([H])[H],2-METHYL-4-CHLOROPHENOL,4-Chloro-2-methylphenol,4-chloro-2-methylphenol,7928,DTXSID5022510,Cc1cc(Cl)ccc1O,"InChI=1S/C7H7ClO/c1-5-4-6(8)2-3-7(5)9/h2-4,9H,1H3",RHPUJHQBPORFGV-UHFFFAOYSA-N,?,,"HANSCH,C ET AL. (1995)",2.78
103387,1571-92-2,1571-92-2,[H]C1=C([H])C(C2=NC3=C([H])C([N+](=O)[O-])=C([H])C([H])=C3N2[H])=C(C([H])([H])[H])C([H])=C1[H],2-(2-Methylphenyl)-5-nitrobenzimidazole,,,7930,DTXSID90877405,Cc1ccccc1-c1[nH]c2ccc(cc2[n]1)[N+]([O-])=O,"InChI=1S/C14H11N3O2/c1-9-4-2-3-5-11(9)14-15-12-7-6-10(17(18)19)8-13(12)16-14/h2-8H,1H3,(H,15,16)",QAINHVMXBULJEN-UHFFFAOYSA-N,?,,"ERTEPINAR,H ET AL. (1995)",3.42
103388,1574-10-3,1574-10-3,[H]C1=C([H])C([H])=C(/C([H])=N/N([H])C(=O)N([H])[H])C([H])=C1[H],"HYDRAZINECARBOXAMIDE, 2-(PHENYLMETHYLENE)-",,,7931,DTXSID90879409,NC(=O)NN=Cc1ccccc1,"InChI=1S/C8H9N3O/c9-8(12)11-10-6-7-4-2-1-3-5-7/h1-6H,(H3,9,11,12)/b10-6+",AKGUXECGGCUDCV-UXBLZVDNSA-N,?,,POMONA (1987),1.27
103389,1574-41-0|2004-70-8,1574-41-0|2004-70-8,[H]C([H])=C([H])/C([H])=C(\[H])C([H])([H])[H],"1,3-PENTADIENE (Z), 1,3-PENTADIENE (E)","(3Z)-1,3-Pentadiene",C5H8,7932|8157,DTXSID60858741|DTXSID50858710,CC=CC=C,"InChI=1S/C5H8/c1-3-5-4-2/h3-5H,1H2,2H3/b5-4+",PMJHHCWVYXUKFD-SNAWJCMRSA-N,?,,SANGSTER (1994),2.4
103391,1576-42-7,1576-42-7,[H]C1=C([H])C(C(=O)N([H])[H])=C([H])C(S(=O)(=O)N([H])[H])=C1[H],"BENZAMIDE, 3-(AMINOSULFONYL)-",PUBCHEM_13668250,C7H8N2O3S,7934,DTXSID30546249,NC(=O)c1cc(ccc1)S(N)(=O)=O,"InChI=1S/C7H8N2O3S/c8-7(10)5-2-1-3-6(4-5)13(9,11)12/h1-4H,(H2,8,10)(H2,9,11,12)",AJVBPNRMKNARPG-UHFFFAOYSA-N,?,,"CAROTTI,A ET AL. (1989)",-0.84
103392,1576-43-8,1576-43-8,[H]OC1=C([H])C([H])=C(S(=O)(=O)N([H])[H])C([H])=C1[H],P-HYDROXYBENZENESULFONAMIDE,"Benzenesulfonamide, 4-hydroxy-",4-Hydroxybenzenesulfonamide,7935,DTXSID0061797,NS(=O)(=O)c1ccc(O)cc1,"InChI=1S/C6H7NO3S/c7-11(9,10)6-3-1-5(8)2-4-6/h1-4,8H,(H2,7,9,10)",DIRCLGLKRZLKHG-UHFFFAOYSA-N,?,,"HANSCH,C ET AL. (1995)",0.06
103393,1582-09-8,1582-09-8,[H]C1=C([N+](=O)[O-])C(N(C([H])([H])C([H])([H])C([H])([H])[H])C([H])([H])C([H])([H])C([H])([H])[H])=C([N+](=O)[O-])C([H])=C1C(F)(F)F,TRIFLURALIN,Trifluralin,"2,6-dinitro-N,N-dipropyl-4-(trifluoromethyl)aniline",7936,DTXSID4021395,CCCN(CCC)c1c(cc(cc1[N+]([O-])=O)C(F)(F)F)[N+]([O-])=O,"InChI=1S/C13H16F3N3O4/c1-3-5-17(6-4-2)12-10(18(20)21)7-9(13(14,15)16)8-11(12)19(22)23/h7-8H,3-6H2,1-2H3",ZSDSQXJSNMTJDA-UHFFFAOYSA-N,?,,"HANSCH,C ET AL. (1995)",5.34
103396,1592-38-7,1592-38-7,[H]OC([H])([H])C1=C([H])C([H])=C2C([H])=C([H])C([H])=C([H])C2=C1[H],2-NAPHTHALENEMETHANOL,2-Naphthalenemethanol,naphthalen-2-ylmethanol,7938,DTXSID70166607,OCc1cc2ccccc2cc1,"InChI=1S/C11H10O/c12-8-9-5-6-10-3-1-2-4-11(10)7-9/h1-7,12H,8H2",MFGWMAAZYZSWMY-UHFFFAOYSA-N,?,,"HANSCH,C ET AL. (1995)",2.21
103397,1592-82-1,1592-82-1,[H]C1=C(OP(=S)(OC([H])([H])[H])OC([H])([H])[H])C([H])=C(C([H])(C([H])([H])[H])C([H])([H])[H])C([N+](=O)[O-])=C1[H],3-ISOPROPYL DIMETHYL PARATHION,"Phosphorothioic acid, O,O-dimethyl O-(3-isopropyl-4-nitrophenyl) ester",dimethoxy-(4-nitro-3-propan-2-ylphenoxy)-sulfanylidenephosphorane,7939,DTXSID00166610,CC(C)c1cc(ccc1[N+]([O-])=O)OP(=S)(OC)OC,"InChI=1S/C11H16NO5PS/c1-8(2)10-7-9(5-6-11(10)12(13)14)17-18(19,15-3)16-4/h5-8H,1-4H3",MPCILJQVDVSLSZ-UHFFFAOYSA-N,?,,"HANSCH,C ET AL. (1995)",4.05
103398,1596-52-7,1596-52-7,O=[N+]([O-])C1=CC=C2C(=C1)C([N+](=O)[O-])=CC=[N+]2[O-],"4,6-DINITROQUINOLINE-1-OXIDE","Quinoline, 4,6-dinitro-, 1-oxide","4,6-dinitro-1-oxidoquinolin-1-ium",7940,DTXSID00166695,[O-][N+](=O)c1cc[n+]([O-])c2ccc(cc21)[N+]([O-])=O,InChI=1S/C9H5N3O5/c13-10-4-3-9(12(16)17)7-5-6(11(14)15)1-2-8(7)10/h1-5H,QERNYYPEFOVKMT-UHFFFAOYSA-N,?,,"HANSCH,C ET AL. (1995)",0.9
103400,1603-41-4,1603-41-4,[H]C1=C(C([H])([H])[H])C([H])=C([H])C(N([H])[H])=N1,2-AMINO-5-METHYLPYRIDINE,5-Methylpyridin-2-amine,5-methylpyridin-2-amine,7942,DTXSID4029220,Cc1ccc(N)[n]c1,"InChI=1S/C6H8N2/c1-5-2-3-6(7)8-4-5/h2-4H,1H3,(H2,7,8)",CMBSSVKZOPZBKW-UHFFFAOYSA-N,?,,"HANSCH,C ET AL. (1995)",1.02
103401,1606-67-3,1606-67-3,[H]C1=C([H])C2=C3C(=C1[H])C([H])=C([H])C1=C([H])C([H])=C(N([H])[H])C(=C13)C([H])=C2[H],1-PYRENAMINE,1-Aminopyrene,pyren-1-amine,7943,DTXSID3040932,Nc1ccc2ccc3cccc4ccc1c2c34,"InChI=1S/C16H11N/c17-14-9-7-12-5-4-10-2-1-3-11-6-8-13(14)16(12)15(10)11/h1-9H,17H2",YZVWKHVRBDQPMQ-UHFFFAOYSA-N,?,,"DEBNATH,AK ET AL. (1992)",4.31