ChemID,source_casrn,CAS,SMILES,NAME,preferred_name,iupac,MPID,dsstox_substance_id,Canonical_QSARr,InChI_Code_QSARr,InChI Key_QSARr,Salt_Solvent,Salt_Solvent_ID,Kow Reference,LogP
102592,619-73-8,619-73-8,[H]OC([H])([H])C1=C([H])C([H])=C([N+](=O)[O-])C([H])=C1[H],P-NITROBENZYL ALCOHOL,4-Nitrobenzyl alcohol,(4-nitrophenyl)methanol,7183,DTXSID1052298,[O-][N+](=O)c1ccc(CO)cc1,"InChI=1S/C7H7NO3/c9-5-6-1-3-7(4-2-6)8(10)11/h1-4,9H,5H2",JKTYGPATCNUWKN-UHFFFAOYSA-N,?,,"HANSCH,C ET AL. (1995)",1.26
102593,619-76-1,619-76-1,[H]C1=C([H])C(C([H])(C([H])([H])[H])C([H])([H])[H])=C([H])C([H])=C1C(=O)N([H])[H],4-ISOPROPYLBENZAMIDE,"Benzamide, 4-(1-methylethyl)-",4-propan-2-ylbenzamide,7184,DTXSID90210934,CC(C)c1ccc(cc1)C(N)=O,"InChI=1S/C10H13NO/c1-7(2)8-3-5-9(6-4-8)10(11)12/h3-7H,1-2H3,(H2,11,12)",JFYDEFSWRWLDGE-UHFFFAOYSA-N,?,,"HANSCH,C ET AL. (1995)",2.14
102595,619-84-1,619-84-1,[H]OC(=O)C1=C([H])C([H])=C(N(C([H])([H])[H])C([H])([H])[H])C([H])=C1[H],4-DIMETHYLAMINO BENZOIC ACID,"Benzoic acid, 4-(dimethylamino)-",4-DIMETHYLAMINOBENZOIC ACID,7186,DTXSID7060708,CN(C)c1ccc(cc1)C(O)=O,"InChI=1S/C9H11NO2/c1-10(2)8-5-3-7(4-6-8)9(11)12/h3-6H,1-2H3,(H,11,12)",YDIYEOMDOWUDTJ-UHFFFAOYSA-N,?,,"DA,YZ ET AL. (1992)",1.28
102596,619-86-3,619-86-3,[H]OC(=O)C1=C([H])C([H])=C(OC([H])([H])C([H])([H])[H])C([H])=C1[H],P-ETHOXYBENZOIC ACID,"Benzoic acid, 4-ethoxy-",4-Ethoxybenzoic acid,7187,DTXSID2060709,CCOc1ccc(cc1)C(O)=O,"InChI=1S/C9H10O3/c1-2-12-8-5-3-7(4-6-8)9(10)11/h3-6H,2H2,1H3,(H,10,11)",SHSGDXCJYVZFTP-UHFFFAOYSA-N,?,,"HANSCH,C ET AL. (1995)",2.39
102597,619-90-9,619-90-9,[H]C1=C([H])C(C([H])([H])OC(=O)C([H])([H])[H])=C([H])C([H])=C1[N+](=O)[O-],"ACETIC ACID, NITROBENZYL ESTER","Benzenemethanol, 4-nitro-, acetate (ester)",(4-nitrophenyl)methyl acetate,7188,DTXSID6060711,CC(=O)OCc1ccc(cc1)[N+]([O-])=O,"InChI=1S/C9H9NO4/c1-7(11)14-6-8-2-4-9(5-3-8)10(12)13/h2-5H,6H2,1H3",QNXQLPUEZYZYFC-UHFFFAOYSA-N,?,,"HANSCH,C ET AL. (1995)",1.73
102599,620-08-6,620-08-6,[H]C1=NC([H])=C([H])C(OC([H])([H])[H])=C1[H],4-METHOXYPYRIDINE,4-Methoxypyridine,4-Methoxypyridine,7190,DTXSID10211029,COc1cc[n]cc1,"InChI=1S/C6H7NO/c1-8-6-2-4-7-5-3-6/h2-5H,1H3",XQABVLBGNWBWIV-UHFFFAOYSA-N,?,,"HANSCH,C ET AL. (1995)",1.0
102600,620-14-4,620-14-4,[H]C1=C([H])C(C([H])([H])[H])=C([H])C(C([H])([H])C([H])([H])[H])=C1[H],M-ETHYLTOLUENE,3-Ethyltoluene,1-ethyl-3-methylbenzene,7191,DTXSID6050386,Cc1cccc(CC)c1,"InChI=1S/C9H12/c1-3-9-6-4-5-8(2)7-9/h4-7H,3H2,1-2H3",ZLCSFXXPPANWQY-UHFFFAOYSA-N,?,,"SHERBLOM,PM & EGANHOUSE,RP (1988)",3.98
102601,620-17-7,620-17-7,[H]OC1=C([H])C([H])=C([H])C(C([H])([H])C([H])([H])[H])=C1[H],M-ETHYLPHENOL,3-Ethylphenol,3-ethylphenol,7192,DTXSID0022480,CCc1cccc(O)c1,"InChI=1S/C8H10O/c1-2-7-4-3-5-8(9)6-7/h3-6,9H,2H2,1H3",HMNKTRSOROOSPP-UHFFFAOYSA-N,?,,"HANSCH,C ET AL. (1995)",2.4
102603,620-71-3,620-71-3,[H]C1=C([H])C([H])=C(N([H])C(=O)C([H])([H])C([H])([H])[H])C([H])=C1[H],PROPIONANILIDE,N-Phenylpropanamide,N-Phenylpropanamide,7194,DTXSID0060721,CCC(=O)Nc1ccccc1,"InChI=1S/C9H11NO/c1-2-9(11)10-8-6-4-3-5-7-8/h3-7H,2H2,1H3,(H,10,11)",ZTHRQJQJODGZHV-UHFFFAOYSA-N,?,,"HANSCH,C ET AL. (1995)",1.61
102605,620-80-4,NOCAS_862308,[H]C1=C([H])C([H])=C(/C([H])=C(/C(=O)OC([H])([H])C([H])([H])[H])C(=O)C([H])([H])[H])C([H])=C1[H],"ETHYLACETOACETATE, BENZAL",,,7195,DTXSID60862308,CC(=O)C(=Cc1ccccc1)C(=O)OCC,"InChI=1S/C13H14O3/c1-3-16-13(15)12(10(2)14)9-11-7-5-4-6-8-11/h4-9H,3H2,1-2H3/b12-9+",AYZGINZXVVKWKV-FMIVXFBMSA-N,?,,"HANSCH,C ET AL. (1995)",2.21
102606,620-88-2,620-88-2,[H]C1=C([H])C([H])=C(OC2=C([H])C([H])=C([N+](=O)[O-])C([H])=C2[H])C([H])=C1[H],4-NITRO DIPHENYL ETHER,4-Nitrophenyl phenyl ether,1-nitro-4-phenoxybenzene,7196,DTXSID3022087,[O-][N+](=O)c1ccc(cc1)Oc1ccccc1,InChI=1S/C12H9NO3/c14-13(15)10-6-8-12(9-7-10)16-11-4-2-1-3-5-11/h1-9H,JDTMUJBWSGNMGR-UHFFFAOYSA-N,?,,"NANDIHALLI,UB ET AL. (1993)",3.92
102608,621-04-5,621-04-5,[H]C1=C([H])C([H])=C(N([H])C(=O)N([H])C([H])([H])C([H])([H])[H])C([H])=C1[H],1-PHENYL-3-ETHYLUREA,"Urea, 1-ethyl-3-phenyl-",3-ethyl-1-phenylurea,7198,DTXSID90211143,CCNC(=O)Nc1ccccc1,"InChI=1S/C9H12N2O/c1-2-10-9(12)11-8-6-4-3-5-7-8/h3-7H,2H2,1H3,(H2,10,11,12)",XUFXDODGXLVPNJ-UHFFFAOYSA-N,?,,"HANSCH,C ET AL. (1995)",1.64
102609,621-06-7,621-06-7,[H]C1=C([H])C([H])=C(N([H])C(=O)C([H])([H])C2=C([H])C([H])=C([H])C([H])=C2[H])C([H])=C1[H],"BENZENEACETAMIDE, N-PHENYL-","N,2-Diphenylacetamide",C14H13NO,7199,DTXSID00280002,O=C(Cc1ccccc1)Nc1ccccc1,"InChI=1S/C14H13NO/c16-14(11-12-7-3-1-4-8-12)15-13-9-5-2-6-10-13/h1-10H,11H2,(H,15,16)",KYPIASPTMDEDQB-UHFFFAOYSA-N,?,,"YAMAGAMI,C ET AL. (1984)",2.7
102610,621-08-9,621-08-9,[H]C1=C([H])C([H])=C(C([H])([H])S(=O)C([H])([H])C2=C([H])C([H])=C([H])C([H])=C2[H])C([H])=C1[H],"Benzene, 1,1'- sulfinylbis(methylene) bis-",Benzyl sulfoxide,dibenzyl sulfoxide,7200,DTXSID8022088,O=S(Cc1ccccc1)Cc1ccccc1,"InChI=1S/C14H14OS/c15-16(11-13-7-3-1-4-8-13)12-14-9-5-2-6-10-14/h1-10H,11-12H2",HTMQZWFSTJVJEQ-UHFFFAOYSA-N,?,,"HANSCH,C ET AL. (1995)",1.99
102612,621-34-1,621-34-1,[H]OC1=C([H])C([H])=C([H])C(OC([H])([H])C([H])([H])[H])=C1[H],M-ETHOXYPHENOL,"Phenol, 3-ethoxy-",3-Ethoxyphenol,7202,DTXSID9060734,CCOc1cccc(O)c1,"InChI=1S/C8H10O2/c1-2-10-8-5-3-4-7(9)6-8/h3-6,9H,2H2,1H3",VBIKLMJHBGFTPV-UHFFFAOYSA-N,?,,"HANSCH,C ET AL. (1995)",1.98
102614,621-37-4,621-37-4,[H]OC(=O)C([H])([H])C1=C([H])C(O[H])=C([H])C([H])=C1[H],M-HYDROXYPHENYLACETIC ACID,3-Hydroxyphenylacetic acid,2-(3-hydroxyphenyl)acetic acid,7203,DTXSID90211148,Oc1cccc(CC(O)=O)c1,"InChI=1S/C8H8O3/c9-7-3-1-2-6(4-7)5-8(10)11/h1-4,9H,5H2,(H,10,11)",FVMDYYGIDFPZAX-UHFFFAOYSA-N,?,,"HANSCH,C ET AL. (1995)",0.85
102615,621-38-5,621-38-5,[H]C1=C([H])C(N([H])C(=O)C([H])([H])[H])=C([H])C(Br)=C1[H],3-BROMOACETANILIDE,"Acetamide, N-(3-bromophenyl)- (9CI)",N-(3-bromophenyl)acetamide,7204,DTXSID50211149,CC(=O)Nc1cccc(Br)c1,"InChI=1S/C8H8BrNO/c1-6(11)10-8-4-2-3-7(9)5-8/h2-5H,1H3,(H,10,11)",XXHOHJTVFUJJMT-UHFFFAOYSA-N,?,,"NAKAGAWA,Y ET AL. (1992)",2.31
102617,621-59-0,621-59-0,[H]OC1=C([H])C(C([H])=O)=C([H])C([H])=C1OC([H])([H])[H],ISOVANILLIN,"Benzaldehyde,3-hydroxy-4-methoxy-",3-hydroxy-4-methoxybenzaldehyde,7206,DTXSID7049423,COc1ccc(C=O)cc1O,"InChI=1S/C8H8O3/c1-11-8-3-2-6(5-9)4-7(8)10/h2-5,10H,1H3",JVTZFYYHCGSXJV-UHFFFAOYSA-N,?,,"HANSCH,C ET AL. (1995)",0.97
102618,621-64-7,621-64-7,[H]C([H])([H])C([H])([H])C([H])([H])N(N=O)C([H])([H])C([H])([H])C([H])([H])[H],N-NITROSODIPROPYLAMINE,N-Nitrosodipropylamine,N-nitroso-N-propylpropan-1-amine,7207,DTXSID6021032,CCCN(CCC)N=O,"InChI=1S/C6H14N2O/c1-3-5-8(7-9)6-4-2/h3-6H2,1-2H3",YLKFDHTUAUWZPQ-UHFFFAOYSA-N,?,,"HANSCH,C ET AL. (1995)",1.36
102619,621-65-8,621-65-8,[H]OC([H])([H])C([H])(O[N+](=O)[O-])C([H])([H])O[N+](=O)[O-],"1,2,3-PROPANETRIOL, 1,2-DINITRATE",,,7208,DTXSID30875566,[O-][N+](=O)OCC(CO)O[N+]([O-])=O,"InChI=1S/C3H6N2O7/c6-1-3(12-5(9)10)2-11-4(7)8/h3,6H,1-2H2",GFVHBTOOPNJKLV-UHFFFAOYSA-N,?,,"KIKKOJI,T ET AL. (1991)",0.83
102622,621-84-1,621-84-1,[H]C1=C([H])C([H])=C(C([H])([H])OC(=O)N([H])[H])C([H])=C1[H],O-BENZYL CARBAMATE,Benzyl carbamate,phenylmethyl carbamate,7211,DTXSID00211159,NC(=O)OCc1ccccc1,"InChI=1S/C8H9NO2/c9-8(10)11-6-7-4-2-1-3-5-7/h1-5H,6H2,(H2,9,10)",PUJDIJCNWFYVJX-UHFFFAOYSA-N,?,,"HANSCH,C ET AL. (1995)",1.2
102623,621-87-4,621-87-4,[H]C1=C([H])C([H])=C(OC([H])([H])C(=O)C([H])([H])[H])C([H])=C1[H],"2-PROPANONE, 1-PHENOXY-","2-Propanone, 1-phenoxy-",1-(phenoxy)propan-2-one,7212,DTXSID3060740,CC(=O)COc1ccccc1,"InChI=1S/C9H10O2/c1-8(10)7-11-9-5-3-2-4-6-9/h2-6H,7H2,1H3",QWAVNXZAQASOML-UHFFFAOYSA-N,?,,"HANSCH,C ET AL. (1995)",1.04
102624,621-88-5,621-88-5,[H]C1=C([H])C([H])=C(OC([H])([H])C(=O)N([H])[H])C([H])=C1[H],PHENOXYACETAMIDE,"Acetamide, 2-phenoxy-",2-(phenoxy)acetamide,7213,DTXSID8060741,NC(=O)COc1ccccc1,"InChI=1S/C8H9NO2/c9-8(10)6-11-7-4-2-1-3-5-7/h1-5H,6H2,(H2,9,10)",AOPRXJXHLWYPQR-UHFFFAOYSA-N,?,,"HANSCH,C ET AL. (1995)",0.76
102626,622-29-7,622-29-7,[H]C1=C([H])C([H])=C(/C([H])=N/C([H])([H])[H])C([H])=C1[H],"METHANAMINE, N-(PHENYLMETHYLENE)-","Methanamine, N-(phenylmethylene)-",N-methyl-1-phenylmethanimine,7215,DTXSID7060750,CN=Cc1ccccc1,"InChI=1S/C8H9N/c1-9-7-8-5-3-2-4-6-8/h2-7H,1H3/b9-7+",HXTGGPKOEKKUQO-VQHVLOKHSA-N,?,,"HANSCH,C ET AL. (1995)",1.64
102627,622-31-1|932-90-1,932-90-1,[H]C1=C([H])C([H])=C(C([H])([H])N=O)C([H])=C1[H],"BENZALDOXIME,SYN, BENZALDOXIME","Benzaldehyde, oxime",?,7216|7609,DTXSID6061313,O=NCc1ccccc1,"InChI=1S/C7H7NO/c9-8-6-7-4-2-1-3-5-7/h1-5H,6H2",VBXAEFHLULAXHG-UHFFFAOYSA-N,?,,"HANSCH,C ET AL. (1995)",1.85
102628,622-34-4,622-34-4,[H]C1=C([H])C([H])=C(N([H])C#N)C([H])=C1[H],PHENYLCYANAMIDEHEMIHYDRATE,Phenylcyanamide,Phenylcyanamide,7217,DTXSID00211235,N#CNc1ccccc1,"InChI=1S/C7H6N2/c8-6-9-7-4-2-1-3-5-7/h1-5,9H",JLXXLCJERIYMQG-UHFFFAOYSA-N,?,,BIOBYTE STARLIST (2009),1.87
102630,622-38-8,622-38-8,[H]C1=C([H])C([H])=C(SC([H])([H])C([H])([H])[H])C([H])=C1[H],PHENYL ETHYL SULFIDE,(Ethylthio)benzene,ethylsulfanylbenzene,7219,DTXSID60211236,CCSc1ccccc1,"InChI=1S/C8H10S/c1-2-9-8-6-4-3-5-7-8/h3-7H,2H2,1H3",AEHWKBXBXYNPCX-UHFFFAOYSA-N,?,,"HANSCH,C ET AL. (1995)",3.2
102631,622-42-4,622-42-4,[H]C1=C([H])C([H])=C(C([H])([H])[N+](=O)[O-])C([H])=C1[H],A-NITROTOLUENE,.alpha.-Nitrotoluene,nitromethylbenzene,7220,DTXSID7074294,[O-][N+](=O)Cc1ccccc1,"InChI=1S/C7H7NO2/c9-8(10)6-7-4-2-1-3-5-7/h1-5H,6H2",VLZLOWPYUQHHCG-UHFFFAOYSA-N,?,,"HANSCH,C ET AL. (1995)",1.75
102632,622-44-6,622-44-6,[H]C1=C([H])C([H])=C(N=C(Cl)Cl)C([H])=C1[H],PHENYLISOCYANIDE DICHLORIDE,Phenylcarbylamine chloride,"1,1-dichloro-N-phenylmethanimine",7221,DTXSID6074833,ClC(Cl)=Nc1ccccc1,InChI=1S/C7H5Cl2N/c8-7(9)10-6-4-2-1-3-5-6/h1-5H,TTWWZVGVBRPHLE-UHFFFAOYSA-N,?,,"HANSCH,C ET AL. (1995)",2.54
102634,622-47-9,622-47-9,[H]OC(=O)C([H])([H])C1=C([H])C([H])=C(C([H])([H])[H])C([H])=C1[H],P-METHYLPHENYLACETIC ACID,"Acetic acid, (p-tolyl)-",2-(4-methylphenyl)acetic acid,7223,DTXSID80211238,Cc1ccc(CC(O)=O)cc1,"InChI=1S/C9H10O2/c1-7-2-4-8(5-3-7)6-9(10)11/h2-5H,6H2,1H3,(H,10,11)",GXXXUZIRGXYDFP-UHFFFAOYSA-N,?,,"HANSCH,C ET AL. (1995)",1.86
102635,622-50-4,622-50-4,[H]C1=C([H])C(N([H])C(=O)C([H])([H])[H])=C([H])C([H])=C1I,4-IODOACETANILIDE,"Acetamide, N-(4-iodophenyl)-",N-(4-Iodophenyl)acetamide,7224,DTXSID7060752,CC(=O)Nc1ccc(I)cc1,"InChI=1S/C8H8INO/c1-6(11)10-8-4-2-7(9)3-5-8/h2-5H,1H3,(H,10,11)",SIULLDWIXYYVCU-UHFFFAOYSA-N,?,,"HANSCH,C ET AL. (1995)",2.71
102636,622-59-3,622-59-3,[H]C1=C([H])C(C([H])([H])[H])=C([H])C([H])=C1N=C=S,4-METHYLPHENYLISOTHIOCYANATE,"Isothiocyanic acid, 4-tolyl ester",1-isothiocyanato-4-methylbenzene,7225,DTXSID50211240,Cc1ccc(cc1)N=C=S,"InChI=1S/C8H7NS/c1-7-2-4-8(5-3-7)9-6-10/h2-5H,1H3",ABQKHKWXTUVKGF-UHFFFAOYSA-N,?,,"HANSCH,C ET AL. (1995)",3.92
102638,622-78-6,622-78-6,[H]C1=C([H])C([H])=C(C([H])([H])N=C=S)C([H])=C1[H],BENZYLISOTHIOCYANATE,Benzyl isothiocyanate,(isothiocyanatomethyl)benzene,7227,DTXSID0020155,S=C=NCc1ccccc1,"InChI=1S/C8H7NS/c10-7-9-6-8-4-2-1-3-5-8/h1-5H,6H2",MDKCFLQDBWCQCV-UHFFFAOYSA-N,?,,"HANSCH,C ET AL. (1995)",3.16
102639,622-80-0,622-80-0,[H]C1=C([H])C([H])=C(N([H])C([H])([H])C([H])([H])C([H])([H])[H])C([H])=C1[H],N-PROPYLANILINE,"Benzenamine, N-propyl-",N-PROPYLANILINE,7228,DTXSID2060759,CCCNc1ccccc1,"InChI=1S/C9H13N/c1-2-8-10-9-6-4-3-5-7-9/h3-7,10H,2,8H2,1H3",CDZOGLJOFWFVOZ-UHFFFAOYSA-N,?,,"HANSCH,C ET AL. (1995)",2.45
102640,622-83-3,64661-86-5,[H]C1=C([H])C([H])=C(/N=N/C#N)C([H])=C1[H],"DIAZENECARBONITRILE, PHENYL-",PUBCHEM_12569087,C7H5N3,7229,DTXSID10502883,N#CN=Nc1ccccc1,InChI=1S/C7H5N3/c8-6-9-10-7-4-2-1-3-5-7/h1-5H/b10-9+,QGWQTKPYQSONBC-MDZDMXLPSA-N,?,,POMONA (1987),2.3
102642,622-96-8,622-96-8,[H]C1=C([H])C(C([H])([H])C([H])([H])[H])=C([H])C([H])=C1C([H])([H])[H],P-ETHYLTOLUENE,4-Ethyltoluene,1-ethyl-4-methylbenzene,7231,DTXSID9029194,Cc1ccc(CC)cc1,"InChI=1S/C9H12/c1-3-9-6-4-8(2)5-7-9/h4-7H,3H2,1-2H3",JRLPEMVDPFPYPJ-UHFFFAOYSA-N,?,,SANGSTER (1993),3.63
102643,623-03-0,623-03-0,[H]C1=C([H])C(C#N)=C([H])C([H])=C1Cl,"BENZONITRILE, 4-CHLORO-",4-Chlorobenzonitrile,4-chlorobenzonitrile,7232,DTXSID8044703,N#Cc1ccc(Cl)cc1,InChI=1S/C7H4ClN/c8-7-3-1-6(5-9)2-4-7/h1-4H,GJNGXPDXRVXSEH-UHFFFAOYSA-N,?,,SANGSTER (1994),2.47
102644,623-05-2,623-05-2,[H]OC1=C([H])C([H])=C(C([H])([H])O[H])C([H])=C1[H],P-HYDROXYBENZYL ALCOHOL,4-Hydroxybenzenemethanol,4-(Hydroxymethyl)phenol,7233,DTXSID8073920,Oc1ccc(CO)cc1,"InChI=1S/C7H8O2/c8-5-6-1-3-7(9)4-2-6/h1-4,8-9H,5H2",BVJSUAQZOZWCKN-UHFFFAOYSA-N,?,,"HANSCH,C ET AL. (1995)",0.25
102646,623-12-1,623-12-1,[H]C1=C([H])C(OC([H])([H])[H])=C([H])C([H])=C1Cl,4-CHLOROANISOLE,"Benzene, 1-chloro-4-methoxy-",1-Chloro-4-methoxybenzene,7235,DTXSID1060764,COc1ccc(Cl)cc1,"InChI=1S/C7H7ClO/c1-9-7-4-2-6(8)3-5-7/h2-5H,1H3",YRGAYAGBVIXNAQ-UHFFFAOYSA-N,?,,"HANSCH,C ET AL. (1995)",2.78
102647,623-15-4,623-15-4,[H]C1=C([H])C([H])=C(/C([H])=C(\[H])C(=O)C([H])([H])[H])O1,"3-BUTEN-2-ONE, 4-(2-FURANYL)-",Furfural acetone,C8H8O2,7236,DTXSID2025345,CC(=O)C=Cc1ccco1,"InChI=1S/C8H8O2/c1-7(9)4-5-8-3-2-6-10-8/h2-6H,1H3/b5-4+",GBKGJMYPQZODMI-SNAWJCMRSA-N,?,,"HANSCH,C ET AL. (1995)",1.35
102648,623-26-7,623-26-7,[H]C1=C([H])C(C#N)=C([H])C([H])=C1C#N,"1,4-BENZENEDICARBONITRILE","1,4-Benzenedicarbonitrile",Terephthalonitrile,7237,DTXSID1060768,N#Cc1ccc(cc1)C#N,InChI=1S/C8H4N2/c9-5-7-1-2-8(6-10)4-3-7/h1-4H,BHXFKXOIODIUJO-UHFFFAOYSA-N,?,,"HANSCH,C ET AL. (1995)",0.93
102650,623-37-0,6210-51-1,[H]OC([H])(C([H])([H])C([H])([H])[H])C([H])([H])C([H])([H])C([H])([H])[H],3-HEXANOL,(3S)-hexan-3-ol,C6H14O,7239,DTXSID40348539,CCC(O)CCC,"InChI=1S/C6H14O/c1-3-5-6(7)4-2/h6-7H,3-5H2,1-2H3",ZOCHHNOQQHDWHG-UHFFFAOYSA-N,?,,"FUNASAKI,N ET AL. (1986)",1.65
102651,623-42-7,623-42-7,[H]C([H])([H])OC(=O)C([H])([H])C([H])([H])C([H])([H])[H],METHYLBUTYRATE,Methyl butyrate,methyl butanoate,7240,DTXSID5047083,CCCC(=O)OC,"InChI=1S/C5H10O2/c1-3-4-5(6)7-2/h3-4H2,1-2H3",UUIQMZJEGPQKFD-UHFFFAOYSA-N,?,,"HANSCH,C ET AL. (1995)",1.29
102652,623-59-6,623-59-6,[H]N(C(=O)N([H])C([H])([H])[H])C(=O)C([H])([H])[H],"ACETAMIDE, N- (METHYLAMINO)CARBONYL -","Acetamide, N-[(methylamino)carbonyl]-",N-(methylcarbamoyl)acetamide,7241,DTXSID0060773,CC(=O)NC(=O)NC,"InChI=1S/C4H8N2O2/c1-3(7)6-4(8)5-2/h1-2H3,(H2,5,6,7,8)",XRVHSOXXNQTWAW-UHFFFAOYSA-N,?,,"SOTOMATSU,T ET AL. (1987)",-0.7
102654,624-24-8,624-24-8,[H]C([H])([H])OC(=O)C([H])([H])C([H])([H])C([H])([H])C([H])([H])[H],METHYL VALERATE,Methyl valerate,Methyl pentanoate,7243,DTXSID9060784,CCCCC(=O)OC,"InChI=1S/C6H12O2/c1-3-4-5-6(7)8-2/h3-5H2,1-2H3",HNBDRPTVWVGKBR-UHFFFAOYSA-N,?,,"HANSCH,C ET AL. (1995)",1.96
102655,624-38-4,624-38-4,[H]C1=C([H])C(I)=C([H])C([H])=C1I,"1,4-DIIODOBENZENE","1,4-Diiodobenzene","1,4-diiodobenzene",7244,DTXSID2022092,Ic1ccc(I)cc1,InChI=1S/C6H4I2/c7-5-1-2-6(8)4-3-5/h1-4H,LFMWZTSOMGDDJU-UHFFFAOYSA-N,?,,"HANSCH,C ET AL. (1995)",4.11
102656,624-45-3,624-45-3,[H]C([H])([H])OC(=O)C([H])([H])C([H])([H])C(=O)C([H])([H])[H],"PENTANOIC ACID, 4-OXO-, METHYL ESTER",Methyl levulinate,methyl 4-oxopentanoate,7245,DTXSID80211455,CC(=O)CCC(=O)OC,"InChI=1S/C6H10O3/c1-5(7)3-4-6(8)9-2/h3-4H2,1-2H3",UAGJVSRUFNSIHR-UHFFFAOYSA-N,?,,SANGSTER (1993),-0.13
102660,624-73-7,624-73-7,[H]C([H])(I)C([H])([H])I,"ETHANE, 1,2-DIIODO-","Ethane, 1,2-diiodo-","1,2-DIIODOETHANE",7249,DTXSID8060791,ICCI,InChI=1S/C2H4I2/c3-1-2-4/h1-2H2,GBBZLMLLFVFKJM-UHFFFAOYSA-N,?,,"HANSCH,C ET AL. (1995)",2.71
102661,624-78-2,624-78-2,[H]N(C([H])([H])[H])C([H])([H])C([H])([H])[H],METHYLETHYLAMINE,"Ethanamine, N-methyl-",N-METHYLETHANAMINE,7250,DTXSID8060793,CCNC,"InChI=1S/C3H9N/c1-3-4-2/h4H,3H2,1-2H3",LIWAQLJGPBVORC-UHFFFAOYSA-N,?,,"HANSCH,C ET AL. (1995)",0.15
102662,624-84-0,624-84-0,[H]C(=O)N([H])N([H])[H],N-FORMYLHYDRAZINE,Formylhydrazine,formic hydrazide,7251,DTXSID6020642,NNC=O,"InChI=1S/CH4N2O/c2-3-1-4/h1H,2H2,(H,3,4)",XZBIXDPGRMLSTC-UHFFFAOYSA-N,?,,"HANSCH,C ET AL. (1995)",-2.05
102664,624-92-0,624-92-0,[H]C([H])([H])SSC([H])([H])[H],DIMETHYLDISULFIDE,Methyl disulfide,dimethyl disulfide,7253,DTXSID4025117,CSSC,InChI=1S/C2H6S2/c1-3-4-2/h1-2H3,WQOXQRCZOLPYPM-UHFFFAOYSA-N,?,,"HANSCH,C ET AL. (1995)",1.77
102665,625-28-5,625-28-5,[H]C([H])([H])C([H])(C([H])([H])[H])C([H])([H])C#N,"BUTANENITRILE, 3-METHYL-",Isovaleronitrile,3-methylbutanenitrile,7254,DTXSID0021620,CC(C)CC#N,"InChI=1S/C5H9N/c1-5(2)3-4-6/h5H,3H2,1-2H3",QHDRKFYEGYYIIK-UHFFFAOYSA-N,?,,"HANSCH,C ET AL. (1995)",1.07
102666,625-33-2,625-33-2,[H]/C(C(=O)C([H])([H])[H])=C(/[H])C([H])([H])[H],3-PENTEN-2-ONE,3-Penten-2-one,,7255,DTXSID0060800,CC=CC(C)=O,"InChI=1S/C5H8O/c1-3-4-5(2)6/h3-4H,1-2H3/b4-3+",LABTWGUMFABVFG-ONEGZZNKSA-N,?,,"HANSCH,C ET AL. (1995)",0.52
102668,625-52-5,625-52-5,[H]N([H])C(=O)N([H])C([H])([H])C([H])([H])[H],ETHYLUREA,Polyurethane,1-ethylurea,7257,DTXSID20873854,CCNC(N)=O,"InChI=1S/C3H8N2O/c1-2-5-3(4)6/h2H2,1H3,(H3,4,5,6)",RYECOJGRJDOGPP-UHFFFAOYSA-N,?,,"HANSCH,C ET AL. (1995)",-0.74
102669,625-53-6,625-53-6,[H]N([H])C(=S)N([H])C([H])([H])C([H])([H])[H],N-ETHYLTHIOUREA,Ethylthiourea,Ethylthiourea,7258,DTXSID0060804,CCNC(N)=S,"InChI=1S/C3H8N2S/c1-2-5-3(4)6/h2H2,1H3,(H3,4,5,6)",GMEHFXXZSWDEDB-UHFFFAOYSA-N,?,,"GOVERS,H ET AL. (1986)",-0.21
102670,625-74-1,625-74-1,[H]C([H])([H])C([H])(C([H])([H])[H])C([H])([H])[N+](=O)[O-],ISONITROBUTANE,"Propane, 2-methyl-1-nitro-",2-Methyl-1-nitropropane,7259,DTXSID90211547,CC(C)C[N+]([O-])=O,"InChI=1S/C4H9NO2/c1-4(2)3-5(6)7/h4H,3H2,1-2H3",XFXRMDNWSGXSNJ-UHFFFAOYSA-N,?,,"HANSCH,C ET AL. (1995)",1.4
102672,625-84-3,625-84-3,[H]C1=C(C([H])([H])[H])N([H])C(C([H])([H])[H])=C1[H],"2,5-DIMETHYLPYRROLE","2,5-Dimethylpyrrole","2,5-Dimethyl-1H-pyrrole",7261,DTXSID40211552,Cc1ccc(C)[nH]1,"InChI=1S/C6H9N/c1-5-3-4-6(2)7-5/h3-4,7H,1-2H3",PAPNRQCYSFBWDI-UHFFFAOYSA-N,?,,"HANSCH,C ET AL. (1995)",1.47
102673,625-86-5,625-86-5,[H]C1=C(C([H])([H])[H])OC(C([H])([H])[H])=C1[H],"FURAN, 2,5-DIMETHYL-","2,5-Dimethylfuran","2,5-dimethylfuran",7262,DTXSID7022093,Cc1ccc(C)o1,"InChI=1S/C6H8O/c1-5-3-4-6(2)7-5/h3-4H,1-2H3",GSNUFIFRDBKVIE-UHFFFAOYSA-N,?,,"HANSCH,C ET AL. (1995)",2.24
102674,625-89-8,625-89-8,[H]C([H])(N(N=O)C([H])([H])C(F)(F)F)C(F)(F)F,"N-NITROSO-BIS(2,2,2TRIFET)AMINE","N-Nitrosobis(2,2,2-trifluoroethyl) amine","2,2,2-trifluoro-N-nitroso-N-(2,2,2-trifluoroethyl)ethanamine",7263,DTXSID7021023,O=NN(CC(F)(F)F)CC(F)(F)F,"InChI=1S/C4H4F6N2O/c5-3(6,7)1-12(11-13)2-4(8,9)10/h1-2H2",YUEXLPFBTMPXCY-UHFFFAOYSA-N,?,,"HANSCH,C ET AL. (1995)",2.15
102677,626-02-8,626-02-8,[H]OC1=C([H])C([H])=C([H])C(I)=C1[H],3-IODOPHENOL,3-Iodophenol,3-iodophenol,7265,DTXSID3052305,Oc1cc(I)ccc1,"InChI=1S/C6H5IO/c7-5-2-1-3-6(8)4-5/h1-4,8H",FXTKWBZFNQHAAO-UHFFFAOYSA-N,?,,"HANSCH,C ET AL. (1995)",2.93
102678,626-16-4,626-16-4,[H]C1=C([H])C(C([H])([H])Cl)=C([H])C(C([H])([H])Cl)=C1[H],"1,3-(BIS-CHLOROMETHYL)BENZENE","Benzene, 1,3-bis(chloromethyl)-","1,3-Bis(chloromethyl)benzene",7266,DTXSID4060814,ClCc1cc(CCl)ccc1,"InChI=1S/C8H8Cl2/c9-5-7-2-1-3-8(4-7)6-10/h1-4H,5-6H2",GRJWOKACBGZOKT-UHFFFAOYSA-N,?,,"HANSCH,C ET AL. (1995)",2.72
102679,626-17-5,626-17-5,[H]C1=C([H])C(C#N)=C([H])C(C#N)=C1[H],"1,3-DICYANOBENZENE","1,3-Benzenedicarbonitrile","benzene-1,3-dicarbonitrile",7267,DTXSID7027259,N#Cc1cc(ccc1)C#N,InChI=1S/C8H4N2/c9-5-7-2-1-3-8(4-7)6-10/h1-4H,LAQPNDIUHRHNCV-UHFFFAOYSA-N,?,,"HANSCH,C ET AL. (1995)",0.8
102681,626-43-7,626-43-7,[H]C1=C(Cl)C([H])=C(N([H])[H])C([H])=C1Cl,"3,5-DICHLOROANILINE","3,5-Dichloroaniline","3,5-dichloroaniline",7269,DTXSID7030307,Nc1cc(Cl)cc(Cl)c1,"InChI=1S/C6H5Cl2N/c7-4-1-5(8)3-6(9)2-4/h1-3H,9H2",UQRLKWGPEVNVHT-UHFFFAOYSA-N,?,,"HANSCH,C ET AL. (1995)",2.9
102682,626-48-2,626-48-2,[H]C1=C(C([H])([H])[H])N([H])C(=O)N([H])C1=O,24PYRIMIDINEDIONE6METHYL,6-Methyluracil,"6-methylpyrimidine-2,4(1H,3H)-dione",7270,DTXSID8052308,CC1=CC(=O)NC(=O)N1,"InChI=1S/C5H6N2O2/c1-3-2-4(8)7-5(9)6-3/h2H,1H3,(H2,6,7,8,9)",SHVCSCWHWMSGTE-UHFFFAOYSA-N,?,,BIOBYTE (1995),-0.77
102683,626-55-1,626-55-1,[H]C1=NC([H])=C(Br)C([H])=C1[H],3-BROMOPYRIDINE,3-Bromopyridine,3-Bromopyridine,7271,DTXSID9060819,Brc1c[n]ccc1,InChI=1S/C5H4BrN/c6-5-2-1-3-7-4-5/h1-4H,NYPYPOZNGOXYSU-UHFFFAOYSA-N,?,,"HANSCH,C ET AL. (1995)",1.6
102685,626-61-9,626-61-9,[H]C1=NC([H])=C([H])C(Cl)=C1[H],4-CHLOROPYRIDINE,4-Chloropyridine,4-chloropyridine,7273,DTXSID0052671,Clc1cc[n]cc1,InChI=1S/C5H4ClN/c6-5-1-3-7-4-2-5/h1-4H,PVMNPAUTCMBOMO-UHFFFAOYSA-N,?,,SANGSTER (1994),1.28