ChemID,source_casrn,CAS,SMILES,NAME,preferred_name,iupac,MPID,dsstox_substance_id,Canonical_QSARr,InChI_Code_QSARr,InChI Key_QSARr,Salt_Solvent,Salt_Solvent_ID,Kow Reference,LogP
100282,66-76-2,66-76-2,[H]OC1=C(C([H])([H])C2=C(O[H])C3=C([H])C([H])=C([H])C([H])=C3OC2=O)C(=O)OC2=C([H])C([H])=C([H])C([H])=C21,DICOUMAROL,Dicumarol,"3,3'-methanediylbis(4-hydroxy-2H-chromen-2-one)",4942,DTXSID8021729,OC1=C(CC2C(=O)Oc3ccccc3C=2O)C(=O)Oc2ccccc12,"InChI=1S/C19H12O6/c20-16-10-5-1-3-7-14(10)24-18(22)12(16)9-13-17(21)11-6-2-4-8-15(11)25-19(13)23/h1-8,20-21H,9H2",DOBMPNYZJYQDGZ-UHFFFAOYSA-N,?,,"HANSCH,C ET AL. (1995)",2.07
100284,66-81-9,66-81-9,[H]OC([H])(C([H])([H])C1([H])C([H])([H])C(=O)N([H])C(=O)C1([H])[H])C1([H])C(=O)C([H])(C([H])([H])[H])C([H])([H])C([H])(C([H])([H])[H])C1([H])[H],CYCLOHEXIMIDE,Cycloheximide,"4-{(2R)-2-[(1S,3S,5S)-3,5-dimethyl-2-oxocyclohexyl]-2-hydroxyethyl}piperidine-2,6-dione",4944,DTXSID6024882,CC1CC(C(O)CC2CC(=O)NC(=O)C2)C(=O)C(C)C1,"InChI=1S/C15H23NO4/c1-8-3-9(2)15(20)11(4-8)12(17)5-10-6-13(18)16-14(19)7-10/h8-12,17H,3-7H2,1-2H3,(H,16,18,19)",YPHMISFOHDHNIV-UHFFFAOYSA-N,?,,"HANSCH,C ET AL. (1995)",0.55
100285,66-97-7,66-97-7,[H]C1=C([H])C2=C(O1)C([H])=C1OC(=O)C([H])=C([H])C1=C2[H],PSORALEN,Psoralen,"furo[3,2-g]chromen-7-one",4945,DTXSID00216205,O=C1C=Cc2cc3ccoc3cc2O1,InChI=1S/C11H6O3/c12-11-2-1-7-5-8-3-4-13-9(8)6-10(7)14-11/h1-6H,ZCCUUQDIBDJBTK-UHFFFAOYSA-N,?,,(IN PRESS),1.67
100286,67-20-9,67-20-9,[H]C1=C(/C([H])=N/N2C(=O)N([H])C(=O)C2([H])[H])OC([N+](=O)[O-])=C1[H],NITROFURANTOIN,Nitrofurantoin,"1-{[(5-nitrofuran-2-yl)methylidene]amino}imidazolidine-2,4-dione",4946,DTXSID7020972,[O-][N+](=O)c1ccc(C=NN2CC(=O)NC2=O)o1,"InChI=1S/C8H6N4O5/c13-6-4-11(8(14)10-6)9-3-5-1-2-7(17-5)12(15)16/h1-3H,4H2,(H,10,13,14)/b9-3+",NXFQHRVNIOXGAQ-YCRREMRBSA-N,?,,"HANSCH,C ET AL. (1995)",-0.47
100288,67-51-6,67-51-6,[H]C1=C(C([H])([H])[H])N([H])N=C1C([H])([H])[H],"1H-PYRAZOLE, 3,5-DIMETHYL-","3,5-Dimethylpyrazole",,4948,DTXSID5058777,Cc1cc(C)[nH][n]1,"InChI=1S/C5H8N2/c1-4-3-5(2)7-6-4/h3H,1-2H3,(H,6,7)",SDXAWLJRERMRKF-UHFFFAOYSA-N,?,,"HANSCH,C ET AL. (1995)",1.01
100289,67-52-7,67-52-7,[H]N1C(=O)N([H])C(=O)C([H])([H])C1=O,BARBITURIC ACID,Barbituric acid,"pyrimidine-2,4,6(1H,3H,5H)-trione",4949,DTXSID8020129,O=C1NC(=O)CC(=O)N1,"InChI=1S/C4H4N2O3/c7-2-1-3(8)6-4(9)5-2/h1H2,(H2,5,6,7,8,9)",HNYOPLTXPVRDBG-UHFFFAOYSA-N,?,,"HANSCH,C ET AL. (1995)",-1.47
100290,67-56-1,67-56-1,[H]OC([H])([H])[H],METHANOL,Methanol,methanol,4950,DTXSID2021731,CO,"InChI=1S/CH4O/c1-2/h2H,1H3",OKKJLVBELUTLKV-UHFFFAOYSA-N,?,,"HANSCH,C ET AL. (1995)",-0.77
100292,67-64-1,67-64-1,[H]C([H])([H])C(=O)C([H])([H])[H],ACETONE,Acetone,propan-2-one,4952,DTXSID8021482,CC(C)=O,InChI=1S/C3H6O/c1-3(2)4/h1-2H3,CSCPPACGZOOCGX-UHFFFAOYSA-N,?,,"HANSCH,C ET AL. (1995)",-0.24
100293,67-66-3,67-66-3,[H]C(Cl)(Cl)Cl,CHLOROFORM,Chloroform,trichloromethane,4953,DTXSID1020306,ClC(Cl)Cl,InChI=1S/CHCl3/c2-1(3)4/h1H,HEDRZPFGACZZDS-UHFFFAOYSA-N,?,,"HANSCH,C ET AL. (1995)",1.97
100294,67-68-5,67-68-5,[H]C([H])([H])S(=O)C([H])([H])[H],DIMETHYL SULFOXIDE,Dimethyl sulfoxide,C2H6OS,4954,DTXSID2021735,CS(C)=O,InChI=1S/C2H6OS/c1-4(2)3/h1-2H3,IAZDPXIOMUYVGZ-UHFFFAOYSA-N,?,,"HANSCH,C ET AL. (1995)",-1.35
100296,67-72-1,67-72-1,ClC(Cl)(Cl)C(Cl)(Cl)Cl,HEXACHLOROETHANE,Hexachloroethane,hexachloroethane,4956,DTXSID7020689,ClC(Cl)(Cl)C(Cl)(Cl)Cl,"InChI=1S/C2Cl6/c3-1(4,5)2(6,7)8",VHHHONWQHHHLTI-UHFFFAOYSA-N,?,,"HANSCH,C ET AL. (1995)",4.14
100297,67-73-2,67-73-2,[H]OC([H])([H])C(=O)C12OC(C([H])([H])[H])(C([H])([H])[H])OC1([H])C([H])([H])C1([H])C3([H])C([H])([H])C([H])(F)C4=C([H])C(=O)C([H])=C([H])C4(C([H])([H])[H])C3(F)C([H])(O[H])C([H])([H])C21C([H])([H])[H],FLUOCINOLONE ACETONIDE,Fluocinolone acetonide,"(4aS,4bR,5S,6aS,6bS,9aR,10aS,10bS,12S)-4b,12-difluoro-5-hydroxy-6b-(hydroxyacetyl)-4a,6a,8,8-tetramethyl-4a,4b,5,6,6a,6b,9a,10,10a,10b,11,12-dodecahydro-2H-naphtho[2',1':4,5]indeno[1,2-d][1,3]dioxol-2-one",4957,DTXSID0040674,CC1(C)OC2(C(CC3C4CC(F)C5=CC(=O)C=CC5(C)C4(F)C(O)CC23C)O1)C(=O)CO,"InChI=1S/C24H30F2O6/c1-20(2)31-19-9-13-14-8-16(25)15-7-12(28)5-6-21(15,3)23(14,26)17(29)10-22(13,4)24(19,32-20)18(30)11-27/h5-7,13-14,16-17,19,27,29H,8-11H2,1-4H3",FEBLZLNTKCEFIT-UHFFFAOYSA-N,?,,"HANSCH,C ET AL. (1995)",2.48
100298,67-78-7,67-78-7,[H]OC1([H])C([H])([H])C2(C([H])([H])[H])C(O[H])(C(=O)C([H])([H])OC(=O)C([H])([H])[H])C([H])(OC(=O)C([H])([H])[H])C([H])([H])C2([H])C2([H])C([H])([H])C([H])([H])C3=C([H])C(=O)C([H])=C([H])C3(C([H])([H])[H])C12F,TRIAMCINOLONE DIACETATE,Triamcinolone diacetate,"(11beta,16alpha)-9-fluoro-11,17-dihydroxy-3,20-dioxopregna-1,4-diene-16,21-diyl diacetate",4958,DTXSID0048713,CC12C=CC(=O)C=C1CCC1C3CC(OC(C)=O)C(O)(C(=O)COC(C)=O)C3(C)CC(O)C21F,"InChI=1S/C25H31FO8/c1-13(27)33-12-20(31)25(32)21(34-14(2)28)10-18-17-6-5-15-9-16(29)7-8-22(15,3)24(17,26)19(30)11-23(18,25)4/h7-9,17-19,21,30,32H,5-6,10-12H2,1-4H3",XGMPVBXKDAHORN-UHFFFAOYSA-N,?,,"HANSCH,C ET AL. (1995)",1.92
100301,68-12-2,68-12-2,[H]C(=O)N(C([H])([H])[H])C([H])([H])[H],"N,N'-DIMETHYLFORMAMIDE","N,N-Dimethylformamide","N,N-dimethylformamide",4960,DTXSID6020515,CN(C)C=O,"InChI=1S/C3H7NO/c1-4(2)3-5/h3H,1-2H3",ZMXDDKWLCZADIW-UHFFFAOYSA-N,?,,"HANSCH,C ET AL. (1995)",-1.01
100302,68-22-4,68-22-4,[H]C#CC1(O[H])C([H])([H])C([H])([H])C2([H])C3([H])C([H])([H])C([H])([H])C4=C([H])C(=O)C([H])([H])C([H])([H])C4([H])C3([H])C([H])([H])C([H])([H])C12C([H])([H])[H],Norethindrone,Norethindrone,(17beta)-17-ethynyl-17-hydroxyestr-4-en-3-one,4961,DTXSID9023380,CC12CCC3C4CCC(=O)C=C4CCC3C1CCC2(O)C#C,"InChI=1S/C20H26O2/c1-3-20(22)11-9-18-17-6-4-13-12-14(21)5-7-15(13)16(17)8-10-19(18,20)2/h1,12,15-18,22H,4-11H2,2H3",VIKNJXKGJWUCNN-UHFFFAOYSA-N,?,,"HANSCH,C ET AL. (1995)",2.97
100303,68-26-8,68-26-8,[H]OC([H])([H])/C([H])=C(C(/[H])=C([H])/C([H])=C(C(/[H])=C(\[H])C1=C(C([H])([H])[H])C([H])([H])C([H])([H])C([H])([H])C1(C([H])([H])[H])C([H])([H])[H])\C([H])([H])[H])\C([H])([H])[H],Retinol,Retinol,retinol,4962,DTXSID3023556,CC1CCCC(C)(C)C=1C=CC(C)=CC=CC(C)=CCO,"InChI=1S/C20H30O/c1-16(8-6-9-17(2)13-15-21)11-12-19-18(3)10-7-14-20(19,4)5/h6,8-9,11-13,21H,7,10,14-15H2,1-5H3/b9-6+,12-11+,16-8+,17-13+",FPIPGXGPPPQFEQ-OVSJKPMPSA-N,?,,BIOBYTE (1995),5.68
100305,68-36-0,68-36-0,[H]C1=C([H])C(C(Cl)(Cl)Cl)=C([H])C([H])=C1C(Cl)(Cl)Cl,P-DI(TRICHLOROMETHYL)BENZENE,"1,4-Bis(trichloromethyl)benzene","1,4-bis(trichloromethyl)benzene",4964,DTXSID7026366,ClC(Cl)(Cl)c1ccc(cc1)C(Cl)(Cl)Cl,"InChI=1S/C8H4Cl6/c9-7(10,11)5-1-2-6(4-3-5)8(12,13)14/h1-4H",OTEKOJQFKOIXMU-UHFFFAOYSA-N,?,,"HANSCH,C ET AL. (1995)",4.62
100306,68-76-8,68-76-8,[H]C1=C(N2C([H])([H])C2([H])[H])C(=O)C(N2C([H])([H])C2([H])[H])=C(N2C([H])([H])C2([H])[H])C1=O,TRIAZIQUONE,Triaziquone,"2,3,5-tris(aziridin-1-yl)cyclohexa-2,5-diene-1,4-dione",4965,DTXSID1021370,O=C1C(=CC(=O)C(=C1N1CC1)N1CC1)N1CC1,"InChI=1S/C12H13N3O2/c16-9-7-8(13-1-2-13)12(17)11(15-5-6-15)10(9)14-3-4-14/h7H,1-6H2",PXSOHRWMIRDKMP-UHFFFAOYSA-N,?,,"HANSCH,C ET AL. (1995)",-0.13
100307,68-94-0,68-94-0,[H]C1=NC2=C(C(=O)N1[H])N([H])C([H])=N2,HYPOXANTHINE,Hypoxanthine,"1,7-dihydro-6H-purin-6-one",4966,DTXSID8045983,O=C1NC=Nc2[n]c[nH]c21,"InChI=1S/C5H4N4O/c10-5-3-4(7-1-6-3)8-2-9-5/h1-2H,(H2,6,7,8,9,10)",FDGQSTZJBFJUBT-UHFFFAOYSA-N,?,,"HANSCH,C ET AL. (1995)",-1.11
100309,69-23-8,69-23-8,[H]OC([H])([H])C([H])([H])N1C([H])([H])C([H])([H])N(C([H])([H])C([H])([H])C([H])([H])N2C3=C([H])C(C(F)(F)F)=C([H])C([H])=C3SC3=C2C([H])=C([H])C([H])=C3[H])C([H])([H])C1([H])[H],FLUPHENAZINE,Fluphenazine,2-(4-{3-[2-(trifluoromethyl)-10H-phenothiazin-10-yl]propyl}piperazin-1-yl)ethanol,4968,DTXSID2023068,OCCN1CCN(CCCN2c3ccccc3Sc3ccc(cc23)C(F)(F)F)CC1,"InChI=1S/C22H26F3N3OS/c23-22(24,25)17-6-7-21-19(16-17)28(18-4-1-2-5-20(18)30-21)9-3-8-26-10-12-27(13-11-26)14-15-29/h1-2,4-7,16,29H,3,8-15H2",PLDUPXSUYLZYBN-UHFFFAOYSA-N,?,,"HANSCH,C ET AL. (1995)",4.36
100311,69-53-4,69-53-4,[H]OC(=O)C1([H])N2C(=O)C([H])(N([H])C(=O)C([H])(C3=C([H])C([H])=C([H])C([H])=C3[H])N([H])[H])C2([H])SC1(C([H])([H])[H])C([H])([H])[H],AMPICILLIN,Ampicillin,"(2S,5R,6R)-6-{[(2R)-2-amino-2-phenylacetyl]amino}-3,3-dimethyl-7-oxo-4-thia-1-azabicyclo[3.2.0]heptane-2-carboxylic acid",4969,DTXSID4022602,CC1(C)SC2C(NC(=O)C(N)c3ccccc3)C(=O)N2C1C(O)=O,"InChI=1S/C16H19N3O4S/c1-16(2)11(15(22)23)19-13(21)10(14(19)24-16)18-12(20)9(17)8-6-4-3-5-7-8/h3-7,9-11,14H,17H2,1-2H3,(H,18,20)(H,22,23)",AVKUERGKIZMTKX-UHFFFAOYSA-N,?,,SANGSTER (1994),1.35
100313,69-72-7,69-72-7,[H]OC(=O)C1=C([H])C([H])=C([H])C([H])=C1O[H],SALICYLIC ACID,Salicylic acid,2-hydroxybenzoic acid,4971,DTXSID7026368,Oc1ccccc1C(O)=O,"InChI=1S/C7H6O3/c8-6-4-2-1-3-5(6)7(9)10/h1-4,8H,(H,9,10)",YGSDEFSMJLZEOE-UHFFFAOYSA-N,?,,"HANSCH,C ET AL. (1995)",2.26
100315,69-91-0,NOCAS_862455,[H]OC(=O)C([H])(C1=C([H])C([H])=C([H])C([H])=C1[H])N([H])[H],ALPHA-PHENYLGLYCINE,,,4973,DTXSID70862455,NC(C(O)=O)c1ccccc1,"InChI=1S/C8H9NO2/c9-7(8(10)11)6-4-2-1-3-5-6/h1-5,7H,9H2,(H,10,11)",ZGUNAGUHMKGQNY-UHFFFAOYSA-N,?,,"HANSCH,C ET AL. (1995)",-1.7
100316,69-93-2,69-93-2,[H]N1C(=O)C2=C(N([H])C1=O)N([H])C(=O)N2[H],URIC ACID,Uric acid,"7,9-dihydro-1H-purine-2,6,8(3H)-trione",4974,DTXSID3042508,O=C1NC(=O)NC2NC(=O)NC1=2,"InChI=1S/C5H4N4O3/c10-3-1-2(7-4(11)6-1)8-5(12)9-3/h(H4,6,7,8,9,10,11,12)",LEHOTFFKMJEONL-UHFFFAOYSA-N,?,,"NAHUM,A & HORVATH,C (1980)",-2.17
100317,70-00-8,70-00-8,[H]OC([H])([H])C1([H])OC([H])(N2C(=O)N([H])C(=O)C(C(F)(F)F)=C2[H])C([H])([H])C1([H])O[H],TRIFLURIDINE,Trifluridine,2'-deoxy-5-(trifluoromethyl)uridine,4975,DTXSID4046602,OC1CC(OC1CO)N1C=C(C(=O)NC1=O)C(F)(F)F,"InChI=1S/C10H11F3N2O5/c11-10(12,13)4-2-15(9(19)14-8(4)18)7-1-5(17)6(3-16)20-7/h2,5-7,16-17H,1,3H2,(H,14,18,19)",VSQQQLOSPVPRAZ-UHFFFAOYSA-N,?,,"HANSCH,C ET AL. (1995)",-0.46
100319,70-26-8,NOCAS_860383,[H]OC(=O)C([H])(N([H])[H])C([H])([H])C([H])([H])C([H])([H])N([H])[H],ORNITHINE,,,4977,DTXSID00860383,NCCCC(N)C(O)=O,"InChI=1S/C5H12N2O2/c6-3-1-2-4(7)5(8)9/h4H,1-3,6-7H2,(H,8,9)",AHLPHDHHMVZTML-UHFFFAOYSA-N,?,,SANGSTER (1994),-4.22
100320,70-30-4,70-30-4,[H]OC1=C(Cl)C([H])=C(Cl)C(Cl)=C1C([H])([H])C1=C(O[H])C(Cl)=C([H])C(Cl)=C1Cl,HEXACHLOROPHENE,Hexachlorophene,"2,2'-methanediylbis(3,4,6-trichlorophenol)",4978,DTXSID6020690,Oc1c(Cc2c(Cl)c(Cl)cc(Cl)c2O)c(Cl)c(Cl)cc1Cl,"InChI=1S/C13H6Cl6O2/c14-6-2-8(16)12(20)4(10(6)18)1-5-11(19)7(15)3-9(17)13(5)21/h2-3,20-21H,1H2",ACGUYXCXAPNIKK-UHFFFAOYSA-N,?,,"HANSCH,C ET AL. (1995)",7.54
100321,70-47-3,NOCAS_859927,[H]OC(=O)C([H])(N([H])[H])C([H])([H])C(=O)N([H])[H],ASPARAGINE,,,4979,DTXSID30859927,NC(=O)CC(N)C(O)=O,"InChI=1S/C4H8N2O3/c5-2(4(8)9)1-3(6)7/h2H,1,5H2,(H2,6,7)(H,8,9)",DCXYFEDJOCDNAF-UHFFFAOYSA-N,?,,"CHMELIK,J ET AL. (1991)",-3.82
100323,70-70-2,70-70-2,[H]OC1=C([H])C([H])=C(C(=O)C([H])([H])C([H])([H])[H])C([H])=C1[H],P-HYDROXYPROPIOPHENONE,Paroxypropione,1-(4-hydroxyphenyl)propan-1-one,4981,DTXSID8023426,CCC(=O)c1ccc(O)cc1,"InChI=1S/C9H10O2/c1-2-9(11)7-3-5-8(10)6-4-7/h3-6,10H,2H2,1H3",RARSHUDCJQSEFJ-UHFFFAOYSA-N,?,,"HANSCH,C ET AL. (1995)",2.03
100324,71-00-1,71-00-1,[H]OC(=O)C([H])(N([H])[H])C([H])([H])C1=C([H])N=C([H])N1[H],HISTIDINE,Histidine,L-histidine,4982,DTXSID9023126,NC(Cc1c[n]c[nH]1)C(O)=O,"InChI=1S/C6H9N3O2/c7-5(6(10)11)1-4-2-8-3-9-4/h2-3,5H,1,7H2,(H,8,9)(H,10,11)",HNDVDQJCIGZPNO-UHFFFAOYSA-N,?,,"CHMELIK,J ET AL. (1991)",-3.32
100325,71-23-8,71-23-8,[H]OC([H])([H])C([H])([H])C([H])([H])[H],1-PROPANOL,1-Propanol,propan-1-ol,4983,DTXSID2021739,CCCO,"InChI=1S/C3H8O/c1-2-3-4/h4H,2-3H2,1H3",BDERNNFJNOPAEC-UHFFFAOYSA-N,?,,"HANSCH,C ET AL. (1995)",0.25
100327,71-33-0,71-33-0,[H]C1=NC(=O)N([H])C(=O)N1[H],5-AZAURACIL,5-Azauracil,"1H-1,3,5-triazine-2,4-dione",4985,DTXSID00221218,O=C1NC=NC(=O)N1,"InChI=1S/C3H3N3O2/c7-2-4-1-5-3(8)6-2/h1H,(H2,4,5,6,7,8)",GEWRKGDRYZIFNP-UHFFFAOYSA-N,?,,"HANSCH,C ET AL. (1995)",-1.87
100328,71-36-3,71-36-3,[H]OC([H])([H])C([H])([H])C([H])([H])C([H])([H])[H],1-BUTANOL,1-Butanol,butan-1-ol,4986,DTXSID1021740,CCCCO,"InChI=1S/C4H10O/c1-2-3-4-5/h5H,2-4H2,1H3",LRHPLDYGYMQRHN-UHFFFAOYSA-N,?,,"HANSCH,C ET AL. (1995)",0.88
100329,71-41-0,71-41-0,[H]OC([H])([H])C([H])([H])C([H])([H])C([H])([H])C([H])([H])[H],1-PENTANOL,1-Pentanol,pentan-1-ol,4987,DTXSID6021741,CCCCCO,"InChI=1S/C5H12O/c1-2-3-4-5-6/h6H,2-5H2,1H3",AMQJEAYHLZJPGS-UHFFFAOYSA-N,?,,SANGSTER (1994),1.51
100331,71-55-6,71-55-6,[H]C([H])([H])C(Cl)(Cl)Cl,"1,1,1-TRICHLOROETHANE","1,1,1-Trichloroethane","1,1,1-trichloroethane",4989,DTXSID0021381,CC(Cl)(Cl)Cl,"InChI=1S/C2H3Cl3/c1-2(3,4)5/h1H3",UOCLXMDMGBRAIB-UHFFFAOYSA-N,?,,"HANSCH,C ET AL. (1995)",2.49
100334,72-14-0,72-14-0,[H]C1=C([H])SC(N([H])S(=O)(=O)C2=C([H])C([H])=C(N([H])[H])C([H])=C2[H])=N1,SULFATHIAZOLE,Sulfathiazole,"4-amino-N-(1,3-thiazol-2-yl)benzenesulfonamide",4991,DTXSID8026068,Nc1ccc(cc1)S(=O)(=O)Nc1[n]cc[s]1,"InChI=1S/C9H9N3O2S2/c10-7-1-3-8(4-2-7)16(13,14)12-9-11-5-6-15-9/h1-6H,10H2,(H,11,12)",JNMRHUJNCSQMMB-UHFFFAOYSA-N,?,,"HANSCH,C ET AL. (1995)",0.05
100336,72-19-5,72-19-5,[H]OC(=O)C([H])(N([H])[H])C([H])(O[H])C([H])([H])[H],THREONINE(L),L-Threonine,L-threonine,4993,DTXSID2046412,CC(O)C(N)C(O)=O,"InChI=1S/C4H9NO3/c1-2(6)3(5)4(7)8/h2-3,6H,5H2,1H3,(H,7,8)",AYFVYJQAPQTCCC-UHFFFAOYSA-N,?,,"HANSCH,C ET AL. (1995)",-2.94
100338,72-43-5,72-43-5,[H]C1=C([H])C(C([H])(C2=C([H])C([H])=C(OC([H])([H])[H])C([H])=C2[H])C(Cl)(Cl)Cl)=C([H])C([H])=C1OC([H])([H])[H],METHOXYCHLOR,Methoxychlor,"1,1'-(2,2,2-trichloroethane-1,1-diyl)bis(4-methoxybenzene)",4995,DTXSID9020827,COc1ccc(cc1)C(c1ccc(cc1)OC)C(Cl)(Cl)Cl,"InChI=1S/C16H15Cl3O2/c1-20-13-7-3-11(4-8-13)15(16(17,18)19)12-5-9-14(21-2)10-6-12/h3-10,15H,1-2H3",IAKOZHOLGAGEJT-UHFFFAOYSA-N,?,,"HANSCH,C ET AL. (1995)",5.08
100339,72-54-8,72-54-8,[H]C1=C([H])C(C([H])(C2=C([H])C([H])=C(Cl)C([H])=C2[H])C([H])(Cl)Cl)=C([H])C([H])=C1Cl,"P,P'-DDD","p,p'-DDD","1,1'-(2,2-dichloroethane-1,1-diyl)bis(4-chlorobenzene)",4996,DTXSID4020373,ClC(Cl)C(c1ccc(Cl)cc1)c1ccc(Cl)cc1,"InChI=1S/C14H10Cl4/c15-11-5-1-9(2-6-11)13(14(17)18)10-3-7-12(16)8-4-10/h1-8,13-14H",AHJKRLASYNVKDZ-UHFFFAOYSA-N,?,,SANGSTER (1994),6.02
100341,72-69-5,72-69-5,[H]C1=C([H])C([H])=C2C(=C1[H])/C(=C(/[H])C([H])([H])C([H])([H])N([H])C([H])([H])[H])C1=C(C([H])=C([H])C([H])=C1[H])C([H])([H])C2([H])[H],Nortriptyline,Nortriptyline,"3-(10,11-dihydro-5H-dibenzo[a,d][7]annulen-5-ylidene)-N-methylpropan-1-amine",4998,DTXSID9023384,CNCCC=C1c2ccccc2CCc2ccccc21,"InChI=1S/C19H21N/c1-20-14-6-11-19-17-9-4-2-7-15(17)12-13-16-8-3-5-10-18(16)19/h2-5,7-11,20H,6,12-14H2,1H3",PHVGLTMQBUFIQQ-UHFFFAOYSA-N,?,,"BRODIN,A (1974)",4.51
100343,73-24-5,73-24-5,[H]C1=NC(N([H])[H])=C2N=C([H])N([H])C2=N1,ADENINE,Adenine,9H-purin-6-amine,5000,DTXSID6022557,Nc1[n]c[n]c2[nH]c[n]c21,"InChI=1S/C5H5N5/c6-4-3-5(9-1-7-3)10-2-8-4/h1-2H,(H3,6,7,8,9,10)",GFFGJBXGBJISGV-UHFFFAOYSA-N,?,,"HANSCH,C ET AL. (1995)",-0.09
100344,73-32-5,73-32-5,[H]OC(=O)C([H])(N([H])[H])C([H])(C([H])([H])[H])C([H])([H])C([H])([H])[H],ISO-LEUCINE,L-Isoleucine,L-isoleucine,5001,DTXSID1047441,CC(CC)C(N)C(O)=O,"InChI=1S/C6H13NO2/c1-3-4(2)5(7)6(8)9/h4-5H,3,7H2,1-2H3,(H,8,9)",AGPKZVBTJJNPAG-UHFFFAOYSA-N,?,,"HANSCH,C ET AL. (1995)",-1.72
100346,73-48-3,73-48-3,[H]C1=C([H])C([H])=C(C([H])([H])C2([H])N([H])C3=C(C([H])=C(S(=O)(=O)N([H])[H])C(C(F)(F)F)=C3[H])S(=O)(=O)N2[H])C([H])=C1[H],BENDROFLUMETHIAZIDE,Bendroflumethiazide,"3-benzyl-6-(trifluoromethyl)-3,4-dihydro-2H-1,2,4-benzothiadiazine-7-sulfonamide 1,1-dioxide",5003,DTXSID5022647,NS(=O)(=O)c1cc2c(cc1C(F)(F)F)NC(Cc1ccccc1)NS2(=O)=O,"InChI=1S/C15H14F3N3O4S2/c16-15(17,18)10-7-11-13(8-12(10)26(19,22)23)27(24,25)21-14(20-11)6-9-4-2-1-3-5-9/h1-5,7-8,14,20-21H,6H2,(H2,19,22,23)",HDWIHXWEUNVBIY-UHFFFAOYSA-N,?,,"BERTHOD,A ET AL. (1999)",1.89
100347,74-11-3,74-11-3,[H]OC(=O)C1=C([H])C([H])=C(Cl)C([H])=C1[H],4-CHLOROBENZOIC ACID,4-Chlorobenzoic acid,4-chlorobenzoic acid,5004,DTXSID9024772,OC(=O)c1ccc(Cl)cc1,"InChI=1S/C7H5ClO2/c8-6-3-1-5(2-4-6)7(9)10/h1-4H,(H,9,10)",XRHGYUZYPHTUJZ-UHFFFAOYSA-N,?,,"HANSCH,C ET AL. (1995)",2.65
100348,74-79-3,74-79-3,[H]/N=C(\N([H])[H])N([H])C([H])([H])C([H])([H])C([H])([H])C([H])(C(=O)O[H])N([H])[H],ARGININE,L-Arginine,L-arginine,5005,DTXSID6041056,NC(=N)NCCCC(N)C(O)=O,"InChI=1S/C6H14N4O2/c7-4(5(11)12)2-1-3-10-6(8)9/h4H,1-3,7H2,(H,11,12)(H4,8,9,10)",ODKSFYDXXFIFQN-UHFFFAOYSA-N,?,,"HANSCH,C ET AL. (1995)",-4.2
100351,74-84-0,74-84-0,[H]C([H])([H])C([H])([H])[H],ETHANE,Ethane,ethane,5007,DTXSID6026377,CC,InChI=1S/C2H6/c1-2/h1-2H3,OTMSDBZUPAUEDD-UHFFFAOYSA-N,?,,"HANSCH,C ET AL. (1995)",1.81
100352,74-85-1,74-85-1,[H]C([H])=C([H])[H],ETHYLENE,Ethylene,ethene,5008,DTXSID1026378,C=C,InChI=1S/C2H4/c1-2/h1-2H2,VGGSQFUCUMXWEO-UHFFFAOYSA-N,?,,"HANSCH,C ET AL. (1995)",1.13
100353,74-86-2,74-86-2,[H]C#C[H],ACETYLENE,Ethyne,ethyne,5009,DTXSID6026379,C#C,InChI=1S/C2H2/c1-2/h1-2H,HSFWRNGVRCDJHI-UHFFFAOYSA-N,?,,"HANSCH,C ET AL. (1995)",0.37
100355,74-88-4,74-88-4,[H]C([H])([H])I,METHYL IODIDE,Methyl iodide,iodomethane,5011,DTXSID0024187,CI,InChI=1S/CH3I/c1-2/h1H3,INQOMBQAUSQDDS-UHFFFAOYSA-N,?,,"HANSCH,C ET AL. (1995)",1.51
100356,74-89-5,74-89-5,[H]N([H])C([H])([H])[H],METHYLAMINE,Methylamine,methanamine,5012,DTXSID7025683,CN,"InChI=1S/CH5N/c1-2/h2H2,1H3",BAVYZALUXZFZLV-UHFFFAOYSA-N,?,,"HANSCH,C ET AL. (1995)",-0.57
100357,74-90-8,74-90-8,[H]C#N,HYDROCYANIC ACID,Hydrogen cyanide,hydrocyanic acid,5013,DTXSID9024148,C#N,InChI=1S/CHN/c1-2/h1H,LELOWRISYMNNSU-UHFFFAOYSA-N,?,,"HANSCH,C ET AL. (1995)",-0.25
100359,74-96-4,74-96-4,[H]C([H])([H])C([H])([H])Br,BROMOETHANE,Bromoethane,bromoethane,5015,DTXSID6020199,CCBr,"InChI=1S/C2H5Br/c1-2-3/h2H2,1H3",RDHPKYGYEGBMSE-UHFFFAOYSA-N,?,,"HANSCH,C ET AL. (1995)",1.61
100360,74-97-5,74-97-5,[H]C([H])(Cl)Br,CHLOROBROMOMETHANE,Bromochloromethane,bromo(chloro)methane,5016,DTXSID4021503,ClCBr,InChI=1S/CH2BrCl/c2-1-3/h1H2,JPOXNPPZZKNXOV-UHFFFAOYSA-N,?,,"HANSCH,C ET AL. (1995)",1.41
100361,74-98-6,74-98-6,[H]C([H])([H])C([H])([H])C([H])([H])[H],PROPANE,Propane,propane,5017,DTXSID5026386,CCC,"InChI=1S/C3H8/c1-3-2/h3H2,1-2H3",ATUOYWHBWRKTHZ-UHFFFAOYSA-N,?,,"HANSCH,C ET AL. (1995)",2.36
100363,75-00-3,75-00-3,[H]C([H])([H])C([H])([H])Cl,CHLOROETHANE,Chloroethane,chloroethane,5019,DTXSID1020302,CCCl,"InChI=1S/C2H5Cl/c1-2-3/h2H2,1H3",HRYZWHHZPQKTII-UHFFFAOYSA-N,?,,"HANSCH,C ET AL. (1995)",1.43
100364,75-03-6,75-03-6,[H]C([H])([H])C([H])([H])I,IODOETHANE,"Ethane, iodo-",Iodoethane,5020,DTXSID9058783,CCI,"InChI=1S/C2H5I/c1-2-3/h2H2,1H3",HVTICUPFWKNHNG-UHFFFAOYSA-N,?,,"HANSCH,C ET AL. (1995)",2.0
100365,75-04-7,75-04-7,[H]N([H])C([H])([H])C([H])([H])[H],ETHYLAMINE,Ethanamine,ethanamine,5021,DTXSID8025678,CCN,"InChI=1S/C2H7N/c1-2-3/h2-3H2,1H3",QUSNBJAOOMFDIB-UHFFFAOYSA-N,?,,"HANSCH,C ET AL. (1995)",-0.13
100367,75-07-0,75-07-0,[H]C(=O)C([H])([H])[H],ACETALDEHYDE,Acetaldehyde,acetaldehyde,5023,DTXSID5039224,CC=O,"InChI=1S/C2H4O/c1-2-3/h2H,1H3",IKHGUXGNUITLKF-UHFFFAOYSA-N,?,,TSCATS,-0.34
100368,75-09-2,75-09-2,[H]C([H])(Cl)Cl,DICHLOROMETHANE,Dichloromethane,dichloromethane,5024,DTXSID0020868,ClCCl,InChI=1S/CH2Cl2/c2-1-3/h1H2,YMWUJEATGCHHMB-UHFFFAOYSA-N,?,,"HANSCH,C ET AL. (1995)",1.25
100369,75-10-5,75-10-5,[H]C([H])(F)F,DIFLUOROMETHANE,"Methane, difluoro-",difluoromethane,5025,DTXSID6029597,FCF,InChI=1S/CH2F2/c2-1-3/h1H2,RWRIWBAIICGTTQ-UHFFFAOYSA-N,?,,"HANSCH,C ET AL. (1995)",0.2
100371,75-12-7,75-12-7,[H]C(=O)N([H])[H],FORMAMIDE,Formamide,formamide,5027,DTXSID8025337,NC=O,"InChI=1S/CH3NO/c2-1-3/h1H,(H2,2,3)",ZHNUHDYFZUAESO-UHFFFAOYSA-N,?,,"HANSCH,C ET AL. (1995)",-1.51
100372,75-15-0,75-15-0,S=C=S,CARBON DISULFIDE,Carbon disulfide,methanedithione,5028,DTXSID6023947,S=C=S,InChI=1S/CS2/c2-1-3,QGJOPFRUJISHPQ-UHFFFAOYSA-N,?,,"HANSCH,C ET AL. (1995)",1.94
100373,75-19-4,75-19-4,[H]C1([H])C([H])([H])C1([H])[H],CYCLOPROPANE,Cyclopropane,CYCLOPROPANE,5029,DTXSID4058786,C1CC1,InChI=1S/C3H6/c1-2-3-1/h1-3H2,LVZWSLJZHVFIQJ-UHFFFAOYSA-N,?,,"HANSCH,C ET AL. (1995)",1.72
100375,75-25-2,75-25-2,[H]C(Br)(Br)Br,BROMOFORM,Bromoform,tribromomethane,5031,DTXSID1021374,BrC(Br)Br,InChI=1S/CHBr3/c2-1(3)4/h1H,DIKBFYAXUHHXCS-UHFFFAOYSA-N,?,,CHEMICALS INSPECTION AND TESTING INSTITU (1992),2.4
100376,75-26-3,75-26-3,[H]C([H])([H])C([H])(Br)C([H])([H])[H],2-BROMOPROPANE,2-Bromopropane,2-bromopropane,5032,DTXSID7030197,CC(C)Br,"InChI=1S/C3H7Br/c1-3(2)4/h3H,1-2H3",NAMYKGVDVNBCFQ-UHFFFAOYSA-N,?,,"HANSCH,C ET AL. (1995)",2.14