ChemID,source_casrn,CAS,SMILES,NAME,preferred_name,iupac,MPID,dsstox_substance_id,Canonical_QSARr,InChI_Code_QSARr,InChI Key_QSARr,Salt_Solvent,Salt_Solvent_ID,Kow Reference,LogP
100697,92-62-6,92-62-6,[H]C1=C([H])C(N([H])[H])=C([H])C2=NC3=C([H])C(N([H])[H])=C([H])C([H])=C3C([H])=C21,"3,6-DIAMINOACRIDINE",Proflavin,C13H11N3,5344,DTXSID9043776,Nc1cc2[n]c3cc(N)ccc3cc2cc1,"InChI=1S/C13H11N3/c14-10-3-1-8-5-9-2-4-11(15)7-13(9)16-12(8)6-10/h1-7H,14-15H2",WDVSHHCDHLJJJR-UHFFFAOYSA-N,?,,"HANSCH,C ET AL. (1995)",1.83
100698,92-66-0,92-66-0,[H]C1=C([H])C([H])=C(C2=C([H])C([H])=C(Br)C([H])=C2[H])C([H])=C1[H],4-BROMOBIPHENYL,4-Bromobiphenyl,4-bromobiphenyl,5345,DTXSID4024640,Brc1ccc(cc1)-c1ccccc1,InChI=1S/C12H9Br/c13-12-8-6-11(7-9-12)10-4-2-1-3-5-10/h1-9H,PKJBWOWQJHHAHG-UHFFFAOYSA-N,?,,"DOUCETTE,WJ & ANDREN,AW (1987)",4.96
100700,92-69-3,92-69-3,[H]OC1=C([H])C([H])=C(C2=C([H])C([H])=C([H])C([H])=C2[H])C([H])=C1[H],P-PHENYLPHENOL,4-Phenylphenol,biphenyl-4-ol,5347,DTXSID7021152,Oc1ccc(cc1)-c1ccccc1,"InChI=1S/C12H10O/c13-12-8-6-11(7-9-12)10-4-2-1-3-5-10/h1-9,13H",YXVFYQXJAXKLAK-UHFFFAOYSA-N,?,,"HANSCH,C ET AL. (1995)",3.2
100701,92-70-6,92-70-6,[H]OC(=O)C1=C(O[H])C([H])=C2C([H])=C([H])C([H])=C([H])C2=C1[H],"2-NAPHTHALENECARBOXYLIC ACID, 3-HYDROXY-",3-Hydroxy-2-naphthoic acid,3-hydroxynaphthalene-2-carboxylic acid,5348,DTXSID3026560,Oc1cc2ccccc2cc1C(O)=O,"InChI=1S/C11H8O3/c12-10-6-8-4-2-1-3-7(8)5-9(10)11(13)14/h1-6,12H,(H,13,14)",ALKYHXVLJMQRLQ-UHFFFAOYSA-N,?,,SANGSTER (1993),3.05
100702,92-71-7,92-71-7,[H]C1=C(C2=C([H])C([H])=C([H])C([H])=C2[H])OC(C2=C([H])C([H])=C([H])C([H])=C2[H])=N1,"OXAZOLE, 2,5-DIPHENYL-","Oxazole, 2,5-diphenyl-","2,5-di(phenyl)-1,3-oxazole",5349,DTXSID7059060,c1[n]c(oc1-c1ccccc1)-c1ccccc1,InChI=1S/C15H11NO/c1-3-7-12(8-4-1)14-11-16-15(17-14)13-9-5-2-6-10-13/h1-11H,CNRNYORZJGVOSY-UHFFFAOYSA-N,?,,"HANSCH,C ET AL. (1995)",4.67
100704,92-83-1,92-83-1,[H]C1=C([H])C([H])=C2C(=C1[H])OC1=C(C([H])=C([H])C([H])=C1[H])C2([H])[H],9H-XANTHENE,9H-Xanthene,9H-Xanthene,5351,DTXSID1059070,C1c2ccccc2Oc2ccccc21,"InChI=1S/C13H10O/c1-3-7-12-10(5-1)9-11-6-2-4-8-13(11)14-12/h1-8H,9H2",GJCOSYZMQJWQCA-UHFFFAOYSA-N,?,,"DE VOOGT,P ET AL. (1990)",4.23
100705,92-84-2,92-84-2,[H]C1=C([H])C([H])=C2C(=C1[H])SC1=C([H])C([H])=C([H])C([H])=C1N2[H],PHENOTHIAZINE,Phenothiazine,C12H9NS,5352,DTXSID5021126,c1cccc2Nc3ccccc3Sc21,"InChI=1S/C12H9NS/c1-3-7-11-9(5-1)13-10-6-2-4-8-12(10)14-11/h1-8,13H",WJFKNYWRSNBZNX-UHFFFAOYSA-N,?,,"HANSCH,C ET AL. (1995)",4.15
100706,92-85-3,92-85-3,[H]C1=C([H])C([H])=C2SC3=C(SC2=C1[H])C([H])=C([H])C([H])=C3[H],THIANTHRENE,Thianthrene,Thianthrene,5353,DTXSID6059071,c1cccc2Sc3ccccc3Sc21,InChI=1S/C12H8S2/c1-2-6-10-9(5-1)13-11-7-3-4-8-12(11)14-10/h1-8H,GVIJJXMXTUZIOD-UHFFFAOYSA-N,?,,"DE VOOGT,P ET AL. (1990)",4.47
100708,92-87-5,92-87-5,[H]C1=C([H])C(N([H])[H])=C([H])C([H])=C1C1=C([H])C([H])=C(N([H])[H])C([H])=C1[H],BENZIDINE,Benzidine,"biphenyl-4,4'-diamine",5355,DTXSID2020137,Nc1ccc(cc1)-c1ccc(N)cc1,"InChI=1S/C12H12N2/c13-11-5-1-9(2-6-11)10-3-7-12(14)8-4-10/h1-8H,13-14H2",HFACYLZERDEVSX-UHFFFAOYSA-N,?,,"HANSCH,C ET AL. (1995)",1.34
100709,92-92-2,92-92-2,[H]OC(=O)C1=C([H])C([H])=C(C2=C([H])C([H])=C([H])C([H])=C2[H])C([H])=C1[H],"1,1'-BIPHENYL -4-CARBOXYLIC ACID","[1,1'-Biphenyl]-4-carboxylic acid",4-Phenylbenzoic acid,5356,DTXSID1059074,OC(=O)c1ccc(cc1)-c1ccccc1,"InChI=1S/C13H10O2/c14-13(15)12-8-6-11(7-9-12)10-4-2-1-3-5-10/h1-9H,(H,14,15)",NNJMFJSKMRYHSR-UHFFFAOYSA-N,?,,"MIYAKE,K ET AL. (1986)",3.75
100710,92-93-3,92-93-3,[H]C1=C([H])C([H])=C(C2=C([H])C([H])=C([N+](=O)[O-])C([H])=C2[H])C([H])=C1[H],P-NITROBIPHENYL,4-Nitrobiphenyl,4-nitrobiphenyl,5357,DTXSID9041522,[O-][N+](=O)c1ccc(cc1)-c1ccccc1,InChI=1S/C12H9NO2/c14-13(15)12-8-6-11(7-9-12)10-4-2-1-3-5-10/h1-9H,BAJQRLZAPXASRD-UHFFFAOYSA-N,?,,"HANSCH,C ET AL. (1995)",3.82
100712,93-02-7,93-02-7,[H]C(=O)C1=C([H])C(OC([H])([H])[H])=C([H])C([H])=C1OC([H])([H])[H],"Benzaldehyde, 2,5-dimethoxy-","2,5-Dimethoxybenzaldehyde","2,5-dimethoxybenzaldehyde",5359,DTXSID5052620,COc1ccc(cc1C=O)OC,"InChI=1S/C9H10O3/c1-11-8-3-4-9(12-2)7(5-8)6-10/h3-6H,1-2H3",AFUKNJHPZAVHGQ-UHFFFAOYSA-N,?,,"JIN,LJ ET AL. (1998)",1.91
100713,93-04-9,93-04-9,[H]C1=C([H])C([H])=C2C([H])=C(OC([H])([H])[H])C([H])=C([H])C2=C1[H],"NAPHTHALENE, 2-METHOXY-",2-Methoxynaphthalene,2-methoxynaphthalene,5360,DTXSID7044392,COc1cc2ccccc2cc1,"InChI=1S/C11H10O/c1-12-11-7-6-9-4-2-3-5-10(9)8-11/h2-8H,1H3",LUZDYPLAQQGJEA-UHFFFAOYSA-N,?,,"HANSCH,C ET AL. (1995)",3.47
100714,93-07-2,93-07-2,[H]OC(=O)C1=C([H])C(OC([H])([H])[H])=C(OC([H])([H])[H])C([H])=C1[H],"3,4-DIMETHOXYBENZOIC ACID","Benzoic acid, 3,4-dimethoxy-","3,4-Dimethoxybenzoic acid",5361,DTXSID6059077,COc1ccc(cc1OC)C(O)=O,"InChI=1S/C9H10O4/c1-12-7-4-3-6(9(10)11)5-8(7)13-2/h3-5H,1-2H3,(H,10,11)",DAUAQNGYDSHRET-UHFFFAOYSA-N,?,,"HANSCH,C ET AL. (1995)",1.61
100716,93-14-1,93-14-1,[H]OC([H])([H])C([H])(O[H])C([H])([H])OC1=C(OC([H])([H])[H])C([H])=C([H])C([H])=C1[H],"1,2-Propanediol, 3-(2-methoxyphenoxy)-",Guaifenesin,"3-(2-methoxyphenoxy)propane-1,2-diol",5363,DTXSID5023114,COc1ccccc1OCC(O)CO,"InChI=1S/C10H14O4/c1-13-9-4-2-3-5-10(9)14-7-8(12)6-11/h2-5,8,11-12H,6-7H2,1H3",HSRJKNPTNIJEKV-UHFFFAOYSA-N,?,,"SMITH,JT & VINJAMOORI,DT (1995)",1.39
100717,93-26-5,93-26-5,[H]C1=C([H])C([H])=C(N([H])C(=O)C([H])([H])[H])C(OC([H])([H])[H])=C1[H],O-METHOXYACETANILIDE,N-(2-Methoxyphenyl)acetamide,N-(2-methoxyphenyl)acetamide,5364,DTXSID0052623,CC(=O)Nc1ccccc1OC,"InChI=1S/C9H11NO2/c1-7(11)10-8-5-3-4-6-9(8)12-2/h3-6H,1-2H3,(H,10,11)",FGOFNVXHDGQVBG-UHFFFAOYSA-N,?,,"HANSCH,C ET AL. (1995)",0.67
100718,93-55-0,93-55-0,[H]C1=C([H])C([H])=C(C(=O)C([H])([H])C([H])([H])[H])C([H])=C1[H],PROPIOPHENONE,1-Phenylpropan-1-one,1-phenylpropan-1-one,5365,DTXSID2044470,CCC(=O)c1ccccc1,"InChI=1S/C9H10O/c1-2-9(10)8-6-4-3-5-7-8/h3-7H,2H2,1H3",KRIOVPPHQSLHCZ-UHFFFAOYSA-N,?,,"HANSCH,C ET AL. (1995)",2.19
100720,93-60-7,93-60-7,[H]C1=NC([H])=C([H])C([H])=C1C(=O)OC([H])([H])[H],"NICOTINIC ACID, METHYL ESTER",Methyl nicotinate,methyl pyridine-3-carboxylate,5367,DTXSID7044471,COC(=O)c1ccc[n]c1,"InChI=1S/C7H7NO2/c1-10-7(9)6-3-2-4-8-5-6/h2-5H,1H3",YNBADRVTZLEFNH-UHFFFAOYSA-N,?,,"HANSCH,C ET AL. (1995)",0.83
100721,93-61-8,93-61-8,[H]C(=O)N(C1=C([H])C([H])=C([H])C([H])=C1[H])C([H])([H])[H],N-METHYLFORMANILIDE,"Formamide, N-methyl-N-phenyl-",N-Methyl-N-phenylformamide,5368,DTXSID0059089,CN(C=O)c1ccccc1,"InChI=1S/C8H9NO/c1-9(7-10)8-5-3-2-4-6-8/h2-7H,1H3",JIKUXBYRTXDNIY-UHFFFAOYSA-N,?,,"HANSCH,C ET AL. (1995)",1.09
100722,93-65-2,93-65-2,[H]OC(=O)C([H])(OC1=C([H])C([H])=C(Cl)C([H])=C1C([H])([H])[H])C([H])([H])[H],MECOPROP,Mecoprop,2-(4-chloro-2-methylphenoxy)propanoic acid,5369,DTXSID9024194,Cc1cc(Cl)ccc1OC(C)C(O)=O,"InChI=1S/C10H11ClO3/c1-6-5-8(11)3-4-9(6)14-7(2)10(12)13/h3-5,7H,1-2H3,(H,12,13)",WNTGYJSOUMFZEP-UHFFFAOYSA-N,?,,"ILCHMANN,A ET AL. (1993)",3.13
100724,93-76-5,93-76-5,[H]OC(=O)C([H])([H])OC1=C([H])C(Cl)=C(Cl)C([H])=C1Cl,"2,4,5-TRICHLOROPHENOXYACETIC ACID","2,4,5-Trichlorophenoxyacetic acid","(2,4,5-trichlorophenoxy)acetic acid",5371,DTXSID5021388,OC(=O)COc1cc(Cl)c(Cl)cc1Cl,"InChI=1S/C8H5Cl3O3/c9-4-1-6(11)7(2-5(4)10)14-3-8(12)13/h1-2H,3H2,(H,12,13)",SMYMJHWAQXWPDB-UHFFFAOYSA-N,?,,"HANSCH,C ET AL. (1995)",3.31
100725,93-79-8,93-79-8,[H]C1=C(Cl)C(OC([H])([H])C(=O)OC([H])([H])C([H])([H])C([H])([H])C([H])([H])[H])=C([H])C(Cl)=C1Cl,"2,4,5-T, N-BUTYL ESTER","Butyl (2,4,5-trichlorophenoxy)acetate","butyl (2,4,5-trichlorophenoxy)acetate",5372,DTXSID7026073,CCCCOC(=O)COc1cc(Cl)c(Cl)cc1Cl,"InChI=1S/C12H13Cl3O3/c1-2-3-4-17-12(16)7-18-11-6-9(14)8(13)5-10(11)15/h5-6H,2-4,7H2,1H3",FNEXNZUHBCBQTI-UHFFFAOYSA-N,?,,SANGSTER (1993),4.81
100727,93-89-0,93-89-0,[H]C1=C([H])C([H])=C(C(=O)OC([H])([H])C([H])([H])[H])C([H])=C1[H],ETHYL BENZOATE,Ethyl benzoate,ethyl benzoate,5373,DTXSID3038696,CCOC(=O)c1ccccc1,"InChI=1S/C9H10O2/c1-2-11-9(10)8-6-4-3-5-7-8/h3-7H,2H2,1H3",MTZQAGJQAFMTAQ-UHFFFAOYSA-N,?,,"HANSCH,C ET AL. (1995)",2.64
100729,93-98-1,93-98-1,[H]C1=C([H])C([H])=C(C(=O)N([H])C2=C([H])C([H])=C([H])C([H])=C2[H])C([H])=C1[H],BENZANILIDE,Benzanilide,N-Phenylbenzamide,5375,DTXSID9059096,O=C(Nc1ccccc1)c1ccccc1,"InChI=1S/C13H11NO/c15-13(11-7-3-1-4-8-11)14-12-9-5-2-6-10-12/h1-10H,(H,14,15)",ZVSKZLHKADLHSD-UHFFFAOYSA-N,?,,"HANSCH,C ET AL. (1995)",2.62
100730,93-99-2,93-99-2,[H]C1=C([H])C([H])=C(OC(=O)C2=C([H])C([H])=C([H])C([H])=C2[H])C([H])=C1[H],PHENYL BENZOATE,Phenyl benzoate,phenyl benzoate,5376,DTXSID0048210,O=C(Oc1ccccc1)c1ccccc1,InChI=1S/C13H10O2/c14-13(11-7-3-1-4-8-11)15-12-9-5-2-6-10-12/h1-10H,FCJSHPDYVMKCHI-UHFFFAOYSA-N,?,,"HANSCH,C ET AL. (1995)",3.59
100731,94-02-0,94-02-0,[H]C1=C([H])C([H])=C(C(=O)C([H])([H])C(=O)OC([H])([H])C([H])([H])[H])C([H])=C1[H],ETHYL BENZOYLACETATE,Ethyl benzoylacetate,ethyl 3-oxo-3-phenylpropanoate,5377,DTXSID4047094,CCOC(=O)CC(=O)c1ccccc1,"InChI=1S/C11H12O3/c1-2-14-11(13)8-10(12)9-6-4-3-5-7-9/h3-7H,2,8H2,1H3",GKKZMYDNDDMXSE-UHFFFAOYSA-N,?,,"HANSCH,C ET AL. (1995)",1.87
100733,94-09-7,94-09-7,[H]C1=C([H])C(N([H])[H])=C([H])C([H])=C1C(=O)OC([H])([H])C([H])([H])[H],"P-AMINOBENZOIC ACID, ETHYL ESTER",Benzocaine,ethyl 4-aminobenzoate,5379,DTXSID8021804,CCOC(=O)c1ccc(N)cc1,"InChI=1S/C9H11NO2/c1-2-12-9(11)7-3-5-8(10)6-4-7/h3-6H,2,10H2,1H3",BLFLLBZGZJTVJG-UHFFFAOYSA-N,?,,"HANSCH,C ET AL. (1995)",1.86
100734,94-12-2,94-12-2,[H]C1=C([H])C(N([H])[H])=C([H])C([H])=C1C(=O)OC([H])([H])C([H])([H])C([H])([H])[H],PROPYL-P-AMINOBENZOATE,Risocaine,propyl 4-aminobenzoate,5380,DTXSID3046299,CCCOC(=O)c1ccc(N)cc1,"InChI=1S/C10H13NO2/c1-2-7-13-10(12)8-3-5-9(11)6-4-8/h3-6H,2,7,11H2,1H3",NBFQYHKHPBMJJV-UHFFFAOYSA-N,?,,"HANSCH,C ET AL. (1995)",2.43
100735,94-13-3,94-13-3,[H]OC1=C([H])C([H])=C(C(=O)OC([H])([H])C([H])([H])C([H])([H])[H])C([H])=C1[H],P-HYDROXY PROPYL BENZOATE,Propylparaben,propyl 4-hydroxybenzoate,5381,DTXSID4022527,CCCOC(=O)c1ccc(O)cc1,"InChI=1S/C10H12O3/c1-2-7-13-10(12)8-3-5-9(11)6-4-8/h3-6,11H,2,7H2,1H3",QELSKZZBTMNZEB-UHFFFAOYSA-N,?,,"HANSCH,C ET AL. (1995)",3.04
100737,94-19-9,94-19-9,[H]C1=C([H])C(S(=O)(=O)N([H])C2=NN=C(C([H])([H])C([H])([H])[H])S2)=C([H])C([H])=C1N([H])[H],ETHAZOLE,Sulfaethidole,"4-amino-N-(5-ethyl-1,3,4-thiadiazol-2-yl)benzenesulfonamide",5383,DTXSID4046286,CCc1[n][n]c(NS(=O)(=O)c2ccc(N)cc2)[s]1,"InChI=1S/C10H12N4O2S2/c1-2-9-12-13-10(17-9)14-18(15,16)8-5-3-7(11)4-6-8/h3-6H,2,11H2,1H3,(H,13,14)",SVYBEBLNQGDRHF-UHFFFAOYSA-N,?,,"HANSCH,C ET AL. (1995)",1.01
100738,94-20-2,94-20-2,[H]C1=C([H])C(S(=O)(=O)N([H])C(=O)N([H])C([H])([H])C([H])([H])C([H])([H])[H])=C([H])C([H])=C1Cl,CHLORPROPAMIDE,Chlorpropamide,4-chloro-N-(propylcarbamoyl)benzenesulfonamide,5384,DTXSID9020322,CCCNC(=O)NS(=O)(=O)c1ccc(Cl)cc1,"InChI=1S/C10H13ClN2O3S/c1-2-7-12-10(14)13-17(15,16)9-5-3-8(11)4-6-9/h3-6H,2,7H2,1H3,(H2,12,13,14)",RKWGIWYCVPQPMF-UHFFFAOYSA-N,?,,"HANSCH,C ET AL. (1995)",2.27
100739,94-24-6,94-24-6,[H]C1=C([H])C(N([H])C([H])([H])C([H])([H])C([H])([H])C([H])([H])[H])=C([H])C([H])=C1C(=O)OC([H])([H])C([H])([H])N(C([H])([H])[H])C([H])([H])[H],TETRACAINE,Tetracaine,2-(dimethylamino)ethyl 4-(butylamino)benzoate,5385,DTXSID1043883,CCCCNc1ccc(cc1)C(=O)OCCN(C)C,"InChI=1S/C15H24N2O2/c1-4-5-10-16-14-8-6-13(7-9-14)15(18)19-12-11-17(2)3/h6-9,16H,4-5,10-12H2,1-3H3",GKCBAIGFKIBETG-UHFFFAOYSA-N,?,,"AVDEEF,A (1997)",3.51
100741,94-26-8,94-26-8,[H]OC1=C([H])C([H])=C(C(=O)OC([H])([H])C([H])([H])C([H])([H])C([H])([H])[H])C([H])=C1[H],P-HYDROXY BUTYL BENZOATE,Butylparaben,butyl 4-hydroxybenzoate,5387,DTXSID3020209,CCCCOC(=O)c1ccc(O)cc1,"InChI=1S/C11H14O3/c1-2-3-8-14-11(13)9-4-6-10(12)7-5-9/h4-7,12H,2-3,8H2,1H3",QFOHBWFCKVYLES-UHFFFAOYSA-N,?,,"HANSCH,C ET AL. (1995)",3.57
100742,94-33-7,94-33-7,[H]OC([H])([H])C([H])([H])OC(=O)C1=C([H])C([H])=C([H])C([H])=C1[H],"1,2-ETHANEDIOL, MONOBENZOATE",,,5388,DTXSID20879477,OCCOC(=O)c1ccccc1,"InChI=1S/C9H10O3/c10-6-7-12-9(11)8-4-2-1-3-5-8/h1-5,10H,6-7H2",LSWRBVSEWBWTDR-UHFFFAOYSA-N,?,,"LEAHY,DE ET AL. (1989)",1.12
100743,94-36-0,94-36-0,[H]C1=C([H])C([H])=C(C(=O)OOC(=O)C2=C([H])C([H])=C([H])C([H])=C2[H])C([H])=C1[H],BENZOYL PEROXIDE,Benzoyl peroxide,diphenylperoxyanhydride,5389,DTXSID6024591,O=C(OOC(=O)c1ccccc1)c1ccccc1,InChI=1S/C14H10O4/c15-13(11-7-3-1-4-8-11)17-18-14(16)12-9-5-2-6-10-12/h1-10H,OMPJBNCRMGITSC-UHFFFAOYSA-N,?,,SANGSTER (1993),3.46
100745,94-44-0,94-44-0,[H]C1=NC([H])=C([H])C([H])=C1C(=O)OC([H])([H])C1=C([H])C([H])=C([H])C([H])=C1[H],"3-PYRIDINECARBOXYLIC ACID, PHENYLMETHYL ESTER",Benzyl nicotinate,benzyl pyridine-3-carboxylate,5391,DTXSID7046542,O=C(OCc1ccccc1)c1ccc[n]c1,"InChI=1S/C13H11NO2/c15-13(12-7-4-8-14-9-12)16-10-11-5-2-1-3-6-11/h1-9H,10H2",KVYGGMBOZFWZBQ-UHFFFAOYSA-N,?,,"GUY,RH ET AL. (1986)",2.4
100746,94-46-2,94-46-2,[H]C1=C([H])C([H])=C(C(=O)OC([H])([H])C([H])([H])C([H])(C([H])([H])[H])C([H])([H])[H])C([H])=C1[H],"1-BUTANOL, 3-METHYL-, BENZOATE",Isopentyl benzoate,3-methylbutyl benzoate,5392,DTXSID8047185,CC(C)CCOC(=O)c1ccccc1,"InChI=1S/C12H16O2/c1-10(2)8-9-14-12(13)11-6-4-3-5-7-11/h3-7,10H,8-9H2,1-2H3",MLLAPOCBLWUFAP-UHFFFAOYSA-N,?,,SANGSTER (1993),4.15
100747,94-47-3,94-47-3,[H]C1=C([H])C([H])=C(C(=O)OC([H])([H])C([H])([H])C2=C([H])C([H])=C([H])C([H])=C2[H])C([H])=C1[H],"BENZOIC ACID, 2-PHENYLETHYL ESTER",2-Phenylethyl benzoate,2-phenylethyl benzoate,5393,DTXSID9047590,O=C(OCCc1ccccc1)c1ccccc1,"InChI=1S/C15H14O2/c16-15(14-9-5-2-6-10-14)17-12-11-13-7-3-1-4-8-13/h1-10H,11-12H2",OSORMYZMWHVFOZ-UHFFFAOYSA-N,?,,"HANSCH,C ET AL. (1995)",4.01
100749,94-74-6,94-74-6,[H]OC(=O)C([H])([H])OC1=C([H])C([H])=C(Cl)C([H])=C1C([H])([H])[H],2-METHYL-4-CHLOROPHENOXYACETIC ACID,MCPA,(4-chloro-2-methylphenoxy)acetic acid,5395,DTXSID4024195,Cc1cc(Cl)ccc1OCC(O)=O,"InChI=1S/C9H9ClO3/c1-6-4-7(10)2-3-8(6)13-5-9(11)12/h2-4H,5H2,1H3,(H,11,12)",WHKUVVPPKQRRBV-UHFFFAOYSA-N,?,,"ILCHMANN,A ET AL. (1993)",3.25
100750,94-75-7,94-75-7,[H]OC(=O)C([H])([H])OC1=C([H])C([H])=C(Cl)C([H])=C1Cl,"2,4-DICHLOROPHENOXYACETIC ACID","2,4-Dichlorophenoxyacetic acid","(2,4-dichlorophenoxy)acetic acid",5396,DTXSID0020442,OC(=O)COc1ccc(Cl)cc1Cl,"InChI=1S/C8H6Cl2O3/c9-5-1-2-7(6(10)3-5)13-4-8(11)12/h1-3H,4H2,(H,11,12)",OVSKIKFHRZPJSS-UHFFFAOYSA-N,?,,"HANSCH,C ET AL. (1995)",2.81
100751,94-82-6,94-82-6,[H]OC(=O)C([H])([H])C([H])([H])C([H])([H])OC1=C(Cl)C([H])=C(Cl)C([H])=C1[H],"2,4-DB","2,4-DB","4-(2,4-dichlorophenoxy)butanoic acid",5397,DTXSID7024035,OC(=O)CCCOc1ccc(Cl)cc1Cl,"InChI=1S/C10H10Cl2O3/c11-7-3-4-9(8(12)6-7)15-5-1-2-10(13)14/h3-4,6H,1-2,5H2,(H,13,14)",YIVXMZJTEQBPQO-UHFFFAOYSA-N,?,,"HANSCH,C ET AL. (1995)",3.53
100753,95-13-6,95-13-6,[H]C1=C([H])C([H])=C2C(=C1[H])C([H])=C([H])C2([H])[H],INDENE,Indene,1H-indene,5399,DTXSID8042052,C1C=Cc2ccccc21,"InChI=1S/C9H8/c1-2-5-9-7-3-6-8(9)4-1/h1-6H,7H2",YBYIRNPNPLQARY-UHFFFAOYSA-N,?,,"HANSCH,C ET AL. (1995)",2.92
100754,95-14-7,95-14-7,[H]C1=C([H])C([H])=C2C(=C1[H])N=NN2[H],1H-BENZOTRIAZOLE,"1,2,3-Benzotriazole",1H-benzotriazole,5400,DTXSID6020147,c1cccc2[nH][n][n]c21,"InChI=1S/C6H5N3/c1-2-4-6-5(3-1)7-9-8-6/h1-4H,(H,7,8,9)",QRUDEWIWKLJBPS-UHFFFAOYSA-N,?,,"HANSCH,C ET AL. (1995)",1.44
100755,95-15-8,95-15-8,[H]C1=C([H])C2=C([H])C([H])=C([H])C([H])=C2S1,BENZO(B)THIOPHENE,Benzothiophene,1-benzothiophene,5401,DTXSID2052736,c1cccc2[s]ccc21,InChI=1S/C8H6S/c1-2-4-8-7(3-1)5-6-9-8/h1-6H,FCEHBMOGCRZNNI-UHFFFAOYSA-N,?,,"HANSCH,C ET AL. (1995)",3.12
100757,95-20-5,95-20-5,[H]C1=C([H])C([H])=C2C(=C1[H])C([H])=C(C([H])([H])[H])N2[H],2-METHYLINDOLE,"1H-Indole, 2-methyl-",2-Methyl-1H-indole,5403,DTXSID5059117,Cc1cc2ccccc2[nH]1,"InChI=1S/C9H9N/c1-7-6-8-4-2-3-5-9(8)10-7/h2-6,10H,1H3",BHNHHSOHWZKFOX-UHFFFAOYSA-N,?,,"HANSCH,C ET AL. (1995)",2.53
100758,95-31-8,95-31-8,[H]C1=C([H])C([H])=C2SC(SN([H])C(C([H])([H])[H])(C([H])([H])[H])C([H])([H])[H])=NC2=C1[H],N-tert-Butyl-2-benzothiazolesulfenamide,N-tert-Butyl-2-benzothiazolesulfenamide,"N-(1,3-benzothiazol-2-ylsulfanyl)-2-methylpropan-2-amine",5404,DTXSID7026572,CC(C)(C)NSc1[n]c2ccccc2[s]1,"InChI=1S/C11H14N2S2/c1-11(2,3)13-15-10-12-8-6-4-5-7-9(8)14-10/h4-7,13H,1-3H3",IUJLOAKJZQBENM-UHFFFAOYSA-N,?,,US EPA (2004),4.67
100759,95-47-6,95-47-6,[H]C1=C([H])C(C([H])([H])[H])=C(C([H])([H])[H])C([H])=C1[H],O-XYLENE,o-Xylene,C8H10,5405,DTXSID3021807,Cc1ccccc1C,"InChI=1S/C8H10/c1-7-5-3-4-6-8(7)2/h3-6H,1-2H3",CTQNGGLPUBDAKN-UHFFFAOYSA-N,?,,"HANSCH,C ET AL. (1995)",3.12
100761,95-49-8,95-49-8,[H]C1=C([H])C(Cl)=C(C([H])([H])[H])C([H])=C1[H],2-CHLOROTOLUENE,2-Chlorotoluene,1-chloro-2-methylbenzene,5407,DTXSID8023977,Cc1ccccc1Cl,"InChI=1S/C7H7Cl/c1-6-4-2-3-5-7(6)8/h2-5H,1H3",IBSQPLPBRSHTTG-UHFFFAOYSA-N,?,,"HANSCH,C ET AL. (1995)",3.42
100762,95-50-1,95-50-1,[H]C1=C([H])C([H])=C(Cl)C(Cl)=C1[H],"1,2-DICHLOROBENZENE","1,2-Dichlorobenzene","1,2-dichlorobenzene",5408,DTXSID6020430,Clc1ccccc1Cl,InChI=1S/C6H4Cl2/c7-5-3-1-2-4-6(5)8/h1-4H,RFFLAFLAYFXFSW-UHFFFAOYSA-N,?,,"HANSCH,C ET AL. (1995)",3.43
100763,95-51-2,95-51-2,[H]C1=C([H])C([H])=C(N([H])[H])C(Cl)=C1[H],2-CHLOROANILINE,2-Chloroaniline,2-chloroaniline,5409,DTXSID2021810,Nc1ccccc1Cl,"InChI=1S/C6H6ClN/c7-5-3-1-2-4-6(5)8/h1-4H,8H2",AKCRQHGQIJBRMN-UHFFFAOYSA-N,?,,"HANSCH,C ET AL. (1995)",1.9
100765,95-54-5,95-54-5,[H]C1=C([H])C([H])=C(N([H])[H])C(N([H])[H])=C1[H],"1,2-BENZENEDIAMINE","1,2-Phenylenediamine","benzene-1,2-diamine",5411,DTXSID3025881,Nc1ccccc1N,"InChI=1S/C6H8N2/c7-5-3-1-2-4-6(5)8/h1-4H,7-8H2",GEYOCULIXLDCMW-UHFFFAOYSA-N,?,,"HANSCH,C ET AL. (1995)",0.15
100766,95-55-6,95-55-6,[H]OC1=C([H])C([H])=C([H])C([H])=C1N([H])[H],O-AMINOPHENOL,2-Aminophenol,2-aminophenol,5412,DTXSID8024498,Nc1ccccc1O,"InChI=1S/C6H7NO/c7-5-3-1-2-4-6(5)8/h1-4,8H,7H2",CDAWCLOXVUBKRW-UHFFFAOYSA-N,?,,"HANSCH,C ET AL. (1995)",0.62
100767,95-56-7,95-56-7,[H]OC1=C(Br)C([H])=C([H])C([H])=C1[H],O-BROMOPHENOL,2-Bromophenol,2-bromophenol,5413,DTXSID8052641,Oc1ccccc1Br,"InChI=1S/C6H5BrO/c7-5-3-1-2-4-6(5)8/h1-4,8H",VADKRMSMGWJZCF-UHFFFAOYSA-N,?,,"HANSCH,C ET AL. (1995)",2.35
100769,95-62-5|155-09-9,13531-35-6|155-09-9,[H]C1=C([H])C([H])=C(C2([H])C([H])([H])C2([H])N([H])[H])C([H])=C1[H],"CYCLOPROPANAMINE, 2-PHENYL-, TRANS, TRANYLCYPROMINE","Tranylcypromine, cis-",?,5415|6255,DTXSID80159308|DTXSID2023694,NC1CC1c1ccccc1,"InChI=1S/C9H11N/c10-9-6-8(9)7-4-2-1-3-5-7/h1-5,8-9H,6,10H2",AELCINSCMGFISI-UHFFFAOYSA-N,?,,SANGSTER (1993),1.58
100770,95-63-6,95-63-6,[H]C1=C(C([H])([H])[H])C([H])=C(C([H])([H])[H])C(C([H])([H])[H])=C1[H],"1,2,4-TRIMETHYLBENZENE","1,2,4-Trimethylbenzene","1,2,4-trimethylbenzene",5416,DTXSID6021402,Cc1cc(C)c(C)cc1,"InChI=1S/C9H12/c1-7-4-5-8(2)9(3)6-7/h4-6H,1-3H3",GWHJZXXIDMPWGX-UHFFFAOYSA-N,?,,"HANSCH,C ET AL. (1995)",3.63
100771,95-64-7,95-64-7,[H]C1=C([H])C(C([H])([H])[H])=C(C([H])([H])[H])C([H])=C1N([H])[H],"3,4-XYLIDINE","3,4-Dimethylaniline","3,4-dimethylaniline",5417,DTXSID3026308,Cc1cc(N)ccc1C,"InChI=1S/C8H11N/c1-6-3-4-8(9)5-7(6)2/h3-5H,9H2,1-2H3",DOLQYFPDPKPQSS-UHFFFAOYSA-N,?,,"JAYASINGHE,DS ET AL. (1992)",1.84
100773,95-68-1,95-68-1,[H]C1=C(N([H])[H])C(C([H])([H])[H])=C([H])C(C([H])([H])[H])=C1[H],"2,4-DIMETHYLANILINE","2,4-Dimethylaniline","2,4-dimethylaniline",5419,DTXSID8026305,Cc1cc(C)c(N)cc1,"InChI=1S/C8H11N/c1-6-3-4-8(9)7(2)5-6/h3-5H,9H2,1-2H3",CZZZABOKJQXEBO-UHFFFAOYSA-N,?,,"HANSCH,C ET AL. (1995)",1.68
100774,95-71-6,95-71-6,[H]OC1=C([H])C([H])=C(O[H])C(C([H])([H])[H])=C1[H],"1,4-BENZENEDIOL, 2-METHYL-",Methylhydroquinone,"2-methylbenzene-1,4-diol",5420,DTXSID4020876,Cc1cc(O)ccc1O,"InChI=1S/C7H8O2/c1-5-4-6(8)2-3-7(5)9/h2-4,8-9H,1H3",CNHDIAIOKMXOLK-UHFFFAOYSA-N,?,,SANGSTER (1994),0.91
100775,95-72-7,95-72-7,[H]C1=C([H])C(C([H])([H])[H])=C(Cl)C([H])=C1C([H])([H])[H],"Benzene, 2-chloro-1,4-dimethyl-","Benzene, 2-chloro-1,4-dimethyl-","2-Chloro-1,4-dimethylbenzene",5421,DTXSID9059125,Cc1cc(Cl)c(C)cc1,"InChI=1S/C8H9Cl/c1-6-3-4-7(2)8(9)5-6/h3-5H,1-2H3",KZNRNQGTVRTDPN-UHFFFAOYSA-N,?,,BIOBYTE (1995),3.86
100777,95-75-0,95-75-0,[H]C1=C(Cl)C(Cl)=C([H])C(C([H])([H])[H])=C1[H],"3,4-DICHLOROTOLUENE","3,4-Dichlorotoluene","1,2-dichloro-4-methylbenzene",5423,DTXSID2021814,Cc1cc(Cl)c(Cl)cc1,"InChI=1S/C7H6Cl2/c1-5-2-3-6(8)7(9)4-5/h2-4H,1H3",WYUIWKFIFOJVKW-UHFFFAOYSA-N,?,,BIOBYTE (1995),3.95