ChemID,source_casrn,CAS,SMILES,NAME,preferred_name,iupac,MPID,dsstox_substance_id,Canonical_QSARr,InChI_Code_QSARr,InChI Key_QSARr,Salt_Solvent,Salt_Solvent_ID,Kow Reference,LogP
102093,515-00-4,19894-97-4,[H]OC([H])([H])C1=C([H])C([H])([H])C2([H])C([H])([H])C1([H])C2(C([H])([H])[H])C([H])([H])[H],(1R)-(-)-Myrtenol,"Myrtenol, (-)-","[(1S,5R)-7,7-dimethyl-4-bicyclo[3.1.1]hept-3-enyl]methanol",6702,DTXSID30173670,CC1(C)C2CC1CC=C2CO,"InChI=1S/C10H16O/c1-10(2)8-4-3-7(6-11)9(10)5-8/h3,8-9,11H,4-6H2,1-2H3",RXBQNMWIQKOSCS-UHFFFAOYSA-N,?,,"GRIFFIN,S ET AL. (1999)",3.22
102094,515-30-0,NOCAS_862090,[H]OC(=O)C(O[H])(C1=C([H])C([H])=C([H])C([H])=C1[H])C([H])([H])[H],"BENZENEACETIC ACID, .ALPHA.-HYDROXY-.ALPHA.-METH",,,6703,DTXSID10862090,CC(O)(c1ccccc1)C(O)=O,"InChI=1S/C9H10O3/c1-9(12,8(10)11)7-5-3-2-4-6-7/h2-6,12H,1H3,(H,10,11)",NWCHELUCVWSRRS-UHFFFAOYSA-N,?,,"KUCHAR,M ET AL. (1985)",0.8
102095,515-64-0,515-64-0,[H]C1=C([H])C(S(=O)(=O)N([H])C2=NC(C([H])([H])[H])=NC(C([H])([H])[H])=C2[H])=C([H])C([H])=C1N([H])[H],SULFISOMIDINE,Sulfisomidine,"4-amino-N-(2,6-dimethylpyrimidin-4-yl)benzenesulfonamide",6704,DTXSID1046390,Cc1cc(NS(=O)(=O)c2ccc(N)cc2)[n]c(C)[n]1,"InChI=1S/C12H14N4O2S/c1-8-7-12(15-9(2)14-8)16-19(17,18)11-5-3-10(13)4-6-11/h3-7H,13H2,1-2H3,(H,14,15,16)",YZMCKZRAOLZXAZ-UHFFFAOYSA-N,?,,"HANSCH,C ET AL. (1995)",-0.33
102097,517-60-2,517-60-2,[H]OC(=O)C1=C(C(=O)O[H])C(C(=O)O[H])=C(C(=O)O[H])C(C(=O)O[H])=C1C(=O)O[H],MELLITIC ACID,Mellitic acid,"benzene-1,2,3,4,5,6-hexacarboxylic acid",6706,DTXSID50199650,OC(=O)c1c(c(c(c(c1C(O)=O)C(O)=O)C(O)=O)C(O)=O)C(O)=O,"InChI=1S/C12H6O12/c13-7(14)1-2(8(15)16)4(10(19)20)6(12(23)24)5(11(21)22)3(1)9(17)18/h(H,13,14)(H,15,16)(H,17,18)(H,19,20)(H,21,22)(H,23,24)",YDSWCNNOKPMOTP-UHFFFAOYSA-N,?,,"AVDEEF,A (1993)",1.5
102098,518-12-7,518-12-7,[H]C1=C([H])C2=C(C([H])=C(OC([H])([H])[H])C1=O)C([H])(N([H])C(=O)C([H])([H])[H])C([H])([H])C([H])([H])C1=C([H])C(OC([H])([H])[H])=C(OC([H])([H])[H])C(OC([H])([H])[H])=C21,Isocolchicine,,,6707,DTXSID60875377,CC(=O)NC1CCc2cc(OC)c(OC)c(OC)c2C2C=CC(=O)C(=CC=21)OC,"InChI=1S/C22H25NO6/c1-12(24)23-16-8-6-13-10-19(27-3)21(28-4)22(29-5)20(13)14-7-9-17(25)18(26-2)11-15(14)16/h7,9-11,16H,6,8H2,1-5H3,(H,23,24)",MDYALASTPGGXQH-UHFFFAOYSA-N,?,,"HANSCH,C ET AL. (1995)",1.0
102102,519-87-9,519-87-9,[H]C1=C([H])C([H])=C(N(C(=O)C([H])([H])[H])C2=C([H])C([H])=C([H])C([H])=C2[H])C([H])=C1[H],"N,N-DIPHENYLACETAMIDE","Acetamide, N,N-diphenyl-","N,N-di(phenyl)acetamide",6710,DTXSID8060165,CC(=O)N(c1ccccc1)c1ccccc1,"InChI=1S/C14H13NO/c1-12(16)15(13-8-4-2-5-9-13)14-10-6-3-7-11-14/h2-11H,1H3",DKLYDESVXZKCFI-UHFFFAOYSA-N,?,,"HANSCH,C ET AL. (1995)",2.02
102103,520-03-6,520-03-6,[H]C1=C([H])C([H])=C(N2C(=O)C3=C(C2=O)C([H])=C([H])C([H])=C3[H])C([H])=C1[H],"1H-ISOINDOLE-1,3(2H)-DIONE, 2-PHENYL-","1H-Isoindole-1,3(2H)-dione, 2-phenyl-","2-phenylisoindole-1,3-dione",6711,DTXSID3060166,O=C1c2ccccc2C(=O)N1c1ccccc1,InChI=1S/C14H9NO2/c16-13-11-8-4-5-9-12(11)14(17)15(13)10-6-2-1-3-7-10/h1-9H,MFUPLJQNEXUUDW-UHFFFAOYSA-N,?,,"HANSCH,C ET AL. (1995)",2.4
102104,520-27-4,520-27-4,[H]OC1=C([H])C(C2=C([H])C(=O)C3=C(O[H])C([H])=C(OC4([H])OC([H])(C([H])([H])OC5([H])OC([H])(C([H])([H])[H])C([H])(O[H])C([H])(O[H])C5([H])O[H])C([H])(O[H])C([H])(O[H])C4([H])O[H])C([H])=C3O2)=C([H])C([H])=C1OC([H])([H])[H],DIOSMINE,Diosmin,5-hydroxy-2-(3-hydroxy-4-methoxyphenyl)-4-oxo-4H-chromen-7-yl 6-O-(6-deoxy-alpha-L-mannopyranosyl)-beta-D-glucopyranoside,6712,DTXSID4045892,CC1OC(OCC2OC(Oc3cc(O)c4C(=O)C=C(Oc4c3)c3cc(O)c(cc3)OC)C(O)C(O)C2O)C(O)C(O)C1O,"InChI=1S/C28H32O15/c1-10-21(32)23(34)25(36)27(40-10)39-9-19-22(33)24(35)26(37)28(43-19)41-12-6-14(30)20-15(31)8-17(42-18(20)7-12)11-3-4-16(38-2)13(29)5-11/h3-8,10,19,21-30,32-37H,9H2,1-2H3",GZSOSUNBTXMUFQ-UHFFFAOYSA-N,?,,"PERRISSOUD,D & TESTA,B (1986)",0.14
102106,520-34-3,520-34-3,[H]OC1=C([H])C(O[H])=C2C(=O)C([H])=C(C3=C([H])C([H])=C(OC([H])([H])[H])C(O[H])=C3[H])OC2=C1[H],DIOSMETINE,Diosmetin,"5,7-dihydroxy-2-(3-hydroxy-4-methoxyphenyl)chromen-4-one",6714,DTXSID80199966,COc1ccc(cc1O)C1=CC(=O)c2c(cc(O)cc2O)O1,"InChI=1S/C16H12O6/c1-21-13-3-2-8(4-10(13)18)14-7-12(20)16-11(19)5-9(17)6-15(16)22-14/h2-7,17-19H,1H3",MBNGWHIJMBWFHU-UHFFFAOYSA-N,?,,"PERRISSOUD,D & TESTA,B (1986)",3.1
102107,520-36-5,520-36-5,[H]OC1=C([H])C([H])=C(C2=C([H])C(=O)C3=C(O[H])C([H])=C(O[H])C([H])=C3O2)C([H])=C1[H],APIGENIN,Apigenin,"5,7-dihydroxy-2-(4-hydroxyphenyl)-4H-chromen-4-one",6715,DTXSID6022391,Oc1cc(O)cc2OC(=CC(=O)c12)c1ccc(O)cc1,"InChI=1S/C15H10O5/c16-9-3-1-8(2-4-9)13-7-12(19)15-11(18)5-10(17)6-14(15)20-13/h1-7,16-18H",KZNIFHPLKGYRTM-UHFFFAOYSA-N,?,,"PERRISSOUD,D & TESTA,B (1986)",3.02
102108,521-18-6,521-18-6,[H]OC1([H])C([H])([H])C([H])([H])C2([H])C3([H])C([H])([H])C([H])([H])C4([H])C([H])([H])C(=O)C([H])([H])C([H])([H])C4(C([H])([H])[H])C3([H])C([H])([H])C([H])([H])C12C([H])([H])[H],"ANDROSTAN-3-ONE, 17-HYDROXY-, (5ALPHA,17BETA)-",5alpha-Dihydrotestosterone,"(5alpha,17beta)-17-hydroxyandrostan-3-one",6716,DTXSID9022364,CC12CCC3C(CCC4CC(=O)CCC43C)C1CCC2O,"InChI=1S/C19H30O2/c1-18-9-7-13(20)11-12(18)3-4-14-15-5-6-17(21)19(15,2)10-8-16(14)18/h12,14-17,21H,3-11H2,1-2H3",NVKAWKQGWWIWPM-UHFFFAOYSA-N,?,,"HANSCH,C ET AL. (1995)",3.55
102110,522-24-7,522-24-7,[H]C1=C([H])C([H])=C2C(=C1[H])SC1=C([H])C([H])=C([H])C([H])=C1N2C([H])([H])C([H])([H])N(C([H])([H])[H])C([H])([H])[H],FENETHAZINE,Fenethazine [INN:DCF],"N,N-dimethyl-2-phenothiazin-10-ylethanamine",6718,DTXSID30200233,CN(C)CCN1c2ccccc2Sc2ccccc12,"InChI=1S/C16H18N2S/c1-17(2)11-12-18-13-7-3-5-9-15(13)19-16-10-6-4-8-14(16)18/h3-10H,11-12H2,1-2H3",PFAXACNYGZVKMX-UHFFFAOYSA-N,?,,"HANSCH,C ET AL. (1995)",4.2
102111,523-50-2,523-50-2,[H]C1=C([H])C2=C3OC(=O)C([H])=C([H])C3=C([H])C([H])=C2O1,"FURO(2,3-H)COUMARIN",Isopsoralen,"furo[2,3-h]chromen-2-one",6719,DTXSID00200321,O=C1C=Cc2ccc3occc3c2O1,InChI=1S/C11H6O3/c12-10-4-2-7-1-3-9-8(5-6-13-9)11(7)14-10/h1-6H,XDROKJSWHURZGO-UHFFFAOYSA-N,?,,SANGSTER (1993),2.08
102114,525-66-6,525-66-6,[H]OC([H])(C([H])([H])OC1=C([H])C([H])=C([H])C2=C([H])C([H])=C([H])C([H])=C12)C([H])([H])N([H])C([H])(C([H])([H])[H])C([H])([H])[H],PROPRANOLOL,Propranolol,1-(naphthalen-1-yloxy)-3-(propan-2-ylamino)propan-2-ol,6720,DTXSID6023525,CC(C)NCC(O)COc1cccc2ccccc12,"InChI=1S/C16H21NO2/c1-12(2)17-10-14(18)11-19-16-9-5-7-13-6-3-4-8-15(13)16/h3-9,12,14,17-18H,10-11H2,1-2H3",AQHHHDLHHXJYJD-UHFFFAOYSA-N,?,,"AVDEEF,A (1997)",3.48
102116,525-82-6,525-82-6,[H]C1=C([H])C([H])=C(C2=C([H])C(=O)C3=C([H])C([H])=C([H])C([H])=C3O2)C([H])=C1[H],FLAVONE,Flavone,2-phenyl-4H-chromen-4-one,6722,DTXSID2022048,O=C1C=C(Oc2ccccc21)c1ccccc1,InChI=1S/C15H10O2/c16-13-10-15(11-6-2-1-3-7-11)17-14-9-5-4-8-12(13)14/h1-10H,VHBFFQKBGNRLFZ-UHFFFAOYSA-N,?,,"HANSCH,C ET AL. (1995)",3.56
102117,525-97-3,525-97-3,[H]OC(=O)C1([H])N2C(=O)C([H])(N([H])C(=O)C([H])([H])C([H])([H])C([H])([H])C([H])([H])C([H])([H])C([H])([H])C([H])([H])[H])C2([H])SC1(C([H])([H])[H])C([H])([H])[H],6-(OCTANOYLAMINO)PENICILLANIC ACID,Penicillin K,,6723,DTXSID80200506,CCCCCCCC(=O)NC1C2SC(C)(C)C(C(O)=O)N2C1=O,"InChI=1S/C16H26N2O4S/c1-4-5-6-7-8-9-10(19)17-11-13(20)18-12(15(21)22)16(2,3)23-14(11)18/h11-12,14H,4-9H2,1-3H3,(H,17,19)(H,21,22)",XVASOOUVMJAZNJ-UHFFFAOYSA-N,?,,SANGSTER (1994),3.32
102118,526-08-9,526-08-9,[H]C1=NN(C2=C([H])C([H])=C([H])C([H])=C2[H])C(N([H])S(=O)(=O)C2=C([H])C([H])=C(N([H])[H])C([H])=C2[H])=C1[H],SULFAPHENAZOLE,Sulfaphenazole,4-amino-N-(1-phenyl-1H-pyrazol-5-yl)benzenesulfonamide,6724,DTXSID2044131,Nc1ccc(cc1)S(=O)(=O)Nc1cc[n][n]1-c1ccccc1,"InChI=1S/C15H14N4O2S/c16-12-6-8-14(9-7-12)22(20,21)18-15-10-11-17-19(15)13-4-2-1-3-5-13/h1-11,18H,16H2",QWCJHSGMANYXCW-UHFFFAOYSA-N,?,,"HANSCH,C ET AL. (1995)",1.52
102120,526-73-8,526-73-8,[H]C1=C([H])C(C([H])([H])[H])=C(C([H])([H])[H])C(C([H])([H])[H])=C1[H],"1,2,3-TRIMETHYLBENZENE","1,2,3-Trimethylbenzene","1,2,3-trimethylbenzene",6726,DTXSID8047769,Cc1c(C)cccc1C,"InChI=1S/C9H12/c1-7-5-4-6-8(2)9(7)3/h4-6H,1-3H3",FYGHSUNMUKGBRK-UHFFFAOYSA-N,?,,"HANSCH,C ET AL. (1995)",3.66
102121,526-75-0,526-75-0,[H]OC1=C(C([H])([H])[H])C(C([H])([H])[H])=C([H])C([H])=C1[H],"2,3-DIMETHYLPHENOL","2,3-Dimethylphenol","2,3-dimethylphenol",6727,DTXSID6025143,Cc1cccc(O)c1C,"InChI=1S/C8H10O/c1-6-4-3-5-8(9)7(6)2/h3-5,9H,1-2H3",QWBBPBRQALCEIZ-UHFFFAOYSA-N,?,,DAYLIGHT (1999),2.48
102122,526-86-3,526-86-3,[H]C1=C([H])C(=O)C(C([H])([H])[H])=C(C([H])([H])[H])C1=O,"2,5-CYCLOHEXADIENE-1,4-DIONE, 2,3-DIMETHYL-","2,3-Dimethyl-2,5-cyclohexadiene-1,4 dione","2,3-dimethylcyclohexa-2,5-diene-1,4-dione",6728,DTXSID10200579,CC1C(=O)C=CC(=O)C=1C,"InChI=1S/C8H8O2/c1-5-6(2)8(10)4-3-7(5)9/h3-4H,1-2H3",AIACLXROWHONEE-UHFFFAOYSA-N,?,,"RICH,PR (1990)",1.23
102124,527-20-8,527-20-8,[H]N([H])C1=C(Cl)C(Cl)=C(Cl)C(Cl)=C1Cl,PENTACHLOROANILINE,Pentachloroaniline,pentachloroaniline,6730,DTXSID4037584,Nc1c(Cl)c(Cl)c(Cl)c(Cl)c1Cl,InChI=1S/C6H2Cl5N/c7-1-2(8)4(10)6(12)5(11)3(1)9/h12H2,KHCZSJXTDDHLGJ-UHFFFAOYSA-N,?,,SANGSTER (1994),4.82
102125,527-53-7,527-53-7,[H]C1=C(C([H])([H])[H])C([H])=C(C([H])([H])[H])C(C([H])([H])[H])=C1C([H])([H])[H],"1,2,3,5-TETRAMETHYLBENZENE","1,2,3,5-Tetramethylbenzene","1,2,3,5-tetramethylbenzene",6731,DTXSID6026119,Cc1cc(C)c(C)c(C)c1,"InChI=1S/C10H14/c1-7-5-8(2)10(4)9(3)6-7/h5-6H,1-4H3",BFIMMTCNYPIMRN-UHFFFAOYSA-N,?,,SANGSTER (1994),4.1
102126,527-60-6,527-60-6,[H]OC1=C(C([H])([H])[H])C([H])=C(C([H])([H])[H])C([H])=C1C([H])([H])[H],"2,4,6-TRIMETHYLPHENOL","2,4,6-Trimethylphenol","2,4,6-trimethylphenol",6732,DTXSID7022049,Cc1cc(C)c(O)c(C)c1,"InChI=1S/C9H12O/c1-6-4-7(2)9(10)8(3)5-6/h4-5,10H,1-3H3",BPRYUXCVCCNUFE-UHFFFAOYSA-N,?,,SANGSTER (1993),2.73
102128,527-72-0,527-72-0,[H]OC(=O)C1=C([H])C([H])=C([H])S1,THIOPHENE-2-CARBOXYLIC ACID,2-Thiophenecarboxylic acid,THIOPHENE-2-CARBOXYLIC ACID,6734,DTXSID2060177,OC(=O)c1ccc[s]1,"InChI=1S/C5H4O2S/c6-5(7)4-2-1-3-8-4/h1-3H,(H,6,7)",QERYCTSHXKAMIS-UHFFFAOYSA-N,?,,"HANSCH,C ET AL. (1995)",1.57
102129,527-73-1,527-73-1,[H]C1=C([H])N([H])C([N+](=O)[O-])=N1,2-NITROIMIDAZOLE,"1H-Imidazole, 2-nitro-",2-NITRO-1H-IMIDAZOLE,6735,DTXSID7060178,[O-][N+](=O)c1[nH]cc[n]1,"InChI=1S/C3H3N3O2/c7-6(8)3-4-1-2-5-3/h1-2H,(H,4,5)",YZEUHQHUFTYLPH-UHFFFAOYSA-N,?,,"HANSCH,C ET AL. (1995)",0.15
102130,527-75-3,NOCAS_862121,[H]OC1([H])C([H])(OC2([H])C([H])(C([H])([H])[H])C([H])(OC3([H])OC([H])(C([H])([H])[H])C([H])(O[H])C(OC([H])([H])[H])(C([H])([H])[H])C3([H])[H])C([H])(C([H])([H])[H])C(=O)OC([H])(C([H])([H])C([H])([H])[H])C([H])(C([H])([H])[H])C([H])(O[H])C([H])(C([H])([H])[H])C(=O)C([H])(C([H])([H])[H])C([H])([H])C2(O[H])C([H])([H])[H])OC([H])(C([H])([H])[H])C([H])([H])C1([H])N(C([H])([H])[H])C([H])([H])[H],"ERYTHROMYCIN, 12-DEOXY-",,,6736,DTXSID60862121,COC1(C)CC(OC2C(C)C(=O)OC(CC)C(C)C(O)C(C)C(=O)C(C)CC(C)(O)C(OC3OC(C)CC(C3O)N(C)C)C2C)OC(C)C1O,"InChI=1S/C37H67NO12/c1-14-26-20(4)29(40)21(5)28(39)18(2)16-36(9,44)33(50-35-30(41)25(38(11)12)15-19(3)46-35)22(6)31(23(7)34(43)48-26)49-27-17-37(10,45-13)32(42)24(8)47-27/h18-27,29-33,35,40-42,44H,14-17H2,1-13H3",IDRYSCOQVVUBIJ-UHFFFAOYSA-N,?,,"HANSCH,C ET AL. (1995)",3.12
102132,527-85-5,527-85-5,[H]C1=C([H])C(C(=O)N([H])[H])=C(C([H])([H])[H])C([H])=C1[H],2-METHYLBENZAMIDE,2-Methylbenzamide,2-methylbenzamide,6738,DTXSID6025569,Cc1ccccc1C(N)=O,"InChI=1S/C8H9NO/c1-6-4-2-3-5-7(6)8(9)10/h2-5H,1H3,(H2,9,10)",XXUNIGZDNWWYED-UHFFFAOYSA-N,?,,"NAKAGAWA,Y ET AL. (1992)",0.76
102133,528-29-0,528-29-0,[H]C1=C([H])C([H])=C([N+](=O)[O-])C([N+](=O)[O-])=C1[H],O-DINITROBENZENE,"1,2-Dinitrobenzene","1,2-dinitrobenzene",6739,DTXSID4024066,[O-][N+](=O)c1ccccc1[N+]([O-])=O,InChI=1S/C6H4N2O4/c9-7(10)5-3-1-2-4-6(5)8(11)12/h1-4H,IZUKQUVSCNEFMJ-UHFFFAOYSA-N,?,,"HANSCH,C ET AL. (1995)",1.69
102134,528-74-5,528-74-5,[H]OC(=O)C([H])([H])C([H])([H])C([H])(C(=O)O[H])N([H])C(=O)C1=C([H])C(Cl)=C(N(C([H])([H])[H])C([H])([H])C2=C([H])N=C3N=C(N([H])[H])N=C(N([H])[H])C3=N2)C(Cl)=C1[H],DICHLOROMETHOTREXATE,Dichloromethotrexate,"N-(3,5-dichloro-4-{[(2,4-diaminopteridin-6-yl)methyl](methyl)amino}benzoyl)-L-glutamic acid",6740,DTXSID3024996,CN(Cc1c[n]c2[n]c(N)[n]c(N)c2[n]1)c1c(Cl)cc(cc1Cl)C(=O)NC(CCC(O)=O)C(O)=O,"InChI=1S/C20H20Cl2N8O5/c1-30(7-9-6-25-17-14(26-9)16(23)28-20(24)29-17)15-10(21)4-8(5-11(15)22)18(33)27-12(19(34)35)2-3-13(31)32/h4-6,12H,2-3,7H2,1H3,(H,27,33)(H,31,32)(H,34,35)(H4,23,24,25,28,29)",MCEHFIXEKNKSRW-UHFFFAOYSA-N,?,,"HANSCH,C ET AL. (1995)",-0.1
102136,529-20-4,529-20-4,[H]C(=O)C1=C([H])C([H])=C([H])C([H])=C1C([H])([H])[H],2-METHYLBENZALDEHYDE,2-Tolualdehyde,2-methylbenzaldehyde,6742,DTXSID1022051,Cc1ccccc1C=O,"InChI=1S/C8H8O/c1-7-4-2-3-5-8(7)6-9/h2-6H,1H3",BTFQKIATRPGRBS-UHFFFAOYSA-N,?,,SANGSTER (1994),2.26
102137,529-33-9,529-33-9,[H]OC1([H])C2=C(C([H])=C([H])C([H])=C2[H])C([H])([H])C([H])([H])C1([H])[H],"1-NAPHTHALENOL, 1,2,3,4-TETRAHYDRO-","1,2,3,4-Tetrahydronaphthalen-1-ol","1,2,3,4-tetrahydronaphthalen-1-ol",6743,DTXSID7027174,OC1CCCc2ccccc21,"InChI=1S/C10H12O/c11-10-7-3-5-8-4-1-2-6-9(8)10/h1-2,4,6,10-11H,3,5,7H2",JAAJQSRLGAYGKZ-UHFFFAOYSA-N,?,,SANGSTER (1993),1.98
102138,529-35-1,529-35-1,[H]OC1=C2C(=C([H])C([H])=C1[H])C([H])([H])C([H])([H])C([H])([H])C2([H])[H],"1-NAPHTHALENOL, 5,6,7,8-TETRAHYDRO-","1-Naphthalenol, 5,6,7,8-tetrahydro-","5,6,7,8-TETRAHYDRONAPHTHALEN-1-OL",6744,DTXSID8074570,Oc1cccc2CCCCc21,"InChI=1S/C10H12O/c11-10-7-3-5-8-4-1-2-6-9(8)10/h3,5,7,11H,1-2,4,6H2",SCWNNOCLLOHZIG-UHFFFAOYSA-N,?,,SANGSTER (1993),2.95
102140,529-64-6,NOCAS_862179,[H]OC(=O)C([H])(C1=C([H])C([H])=C([H])C([H])=C1[H])C([H])([H])O[H],TROPIC ACID,"Tropic acid, (+)-",(2R)-3-hydroxy-2-phenylpropanoic acid,6746,DTXSID90862179,OC(=O)C(CO)c1ccccc1,"InChI=1S/C9H10O3/c10-6-8(9(11)12)7-4-2-1-3-5-7/h1-5,8,10H,6H2,(H,11,12)",JACRWUWPXAESPB-UHFFFAOYSA-N,?,,"HANSCH,C ET AL. (1995)",0.77
102142,530-50-7,530-50-7,[H]C1=C([H])C([H])=C(N(C2=C([H])C([H])=C([H])C([H])=C2[H])N([H])[H])C([H])=C1[H],"HYDRAZINE, 1,1-DIPHENYL-","1,1-Diphenylhydrazine","1,1-diphenylhydrazine",6747,DTXSID3043869,NN(c1ccccc1)c1ccccc1,"InChI=1S/C12H12N2/c13-14(11-7-3-1-4-8-11)12-9-5-2-6-10-12/h1-10H,13H2",YHYKLKNNBYLTQY-UHFFFAOYSA-N,?,,"HANSCH,C ET AL. (1995)",2.8
102143,530-53-0,530-53-0,[H]C1=C([H])C([H])=C2C(=O)N3C(=NC2=C1[H])C([H])([H])C([H])([H])C3([H])[H],"PYRROLO[2,1-B]QUINAZOLIN-9(1H)-ONE, 2,3-DIHYDRO-","2,3-Trimethylene-4-quinazolone","2,3-Dihydro-1H-pyrrolo[2,1-b]quinazolin-9-one",6748,DTXSID90201049,O=C1c2ccccc2N=C2CCCN21,"InChI=1S/C11H10N2O/c14-11-8-4-1-2-5-9(8)12-10-6-3-7-13(10)11/h1-2,4-5H,3,6-7H2",VARHXCYGZKSOOO-UHFFFAOYSA-N,?,,SANGSTER (1993),1.07
102145,530-57-4,530-57-4,[H]OC(=O)C1=C([H])C(OC([H])([H])[H])=C(O[H])C(OC([H])([H])[H])=C1[H],"4-OH-3,5-DIMETHOXYBENZIOC ACID",Syringic acid,"4-Hydroxy-3,5-dimethoxybenzoic acid",6750,DTXSID0060191,COc1cc(cc(OC)c1O)C(O)=O,"InChI=1S/C9H10O5/c1-13-6-3-5(9(11)12)4-7(14-2)8(6)10/h3-4,10H,1-2H3,(H,11,12)",JMSVCTWVEWCHDZ-UHFFFAOYSA-N,?,,"HANSCH,C ET AL. (1995)",1.04
102146,530-78-9,530-78-9,[H]OC(=O)C1=C([H])C([H])=C([H])C([H])=C1N([H])C1=C([H])C([H])=C([H])C(C(F)(F)F)=C1[H],FLUFENAMIC ACID,Flufenamic acid,2-{[3-(trifluoromethyl)phenyl]amino}benzoic acid,6751,DTXSID7023063,OC(=O)c1ccccc1Nc1cc(ccc1)C(F)(F)F,"InChI=1S/C14H10F3NO2/c15-14(16,17)9-4-3-5-10(8-9)18-12-7-2-1-6-11(12)13(19)20/h1-8,18H,(H,19,20)",LPEPZBJOKDYZAD-UHFFFAOYSA-N,?,,"HANSCH,C ET AL. (1995)",5.25
102147,532-03-6,532-03-6,[H]OC([H])(C([H])([H])OC(=O)N([H])[H])C([H])([H])OC1=C(OC([H])([H])[H])C([H])=C([H])C([H])=C1[H],"1,2-PROPANEDIOL, 3-(2-METHOXYPHENOXY)-, 1-CARBAM",Methocarbamol,2-hydroxy-3-(2-methoxyphenoxy)propyl carbamate,6752,DTXSID6023286,COc1ccccc1OCC(O)COC(N)=O,"InChI=1S/C11H15NO5/c1-15-9-4-2-3-5-10(9)16-6-8(13)7-17-11(12)14/h2-5,8,13H,6-7H2,1H3,(H2,12,14)",GNXFOGHNGIVQEH-UHFFFAOYSA-N,?,,CHEMICALS INSPECTION AND TESTING INSTITU (1992),0.61
102149,533-17-5,533-17-5,[H]C1=C([H])C([H])=C(N([H])C(=O)C([H])([H])[H])C(Cl)=C1[H],2-CHLOROACETANILIDE,"Acetamide, N-(2-chlorophenyl)-",N-(2-Chlorophenyl)acetamide,6754,DTXSID2060200,CC(=O)Nc1ccccc1Cl,"InChI=1S/C8H8ClNO/c1-6(11)10-8-5-3-2-4-7(8)9/h2-5H,1H3,(H,10,11)",KNVQTRVKSOEHPU-UHFFFAOYSA-N,?,,"HANSCH,C ET AL. (1995)",1.28
102150,533-18-6,533-18-6,[H]C1=C([H])C([H])=C(C([H])([H])[H])C(OC(=O)C([H])([H])[H])=C1[H],O-TOLYLACETATE,"Acetic acid, 2-methylphenyl ester",(2-methylphenyl) acetate,6755,DTXSID7060201,Cc1ccccc1OC(C)=O,"InChI=1S/C9H10O2/c1-7-5-3-4-6-9(7)11-8(2)10/h3-6H,1-2H3",AMZORBZSQRUXNC-UHFFFAOYSA-N,?,,"HANSCH,C ET AL. (1995)",1.93
102151,533-45-9,533-45-9,[H]C1=NC(C([H])([H])[H])=C(C([H])([H])C([H])([H])Cl)S1,CLOMETHIAZOLE,Clomethiazole,"5-(2-chloroethyl)-4-methyl-1,3-thiazole",6756,DTXSID6022842,Cc1[n]c[s]c1CCCl,"InChI=1S/C6H8ClNS/c1-5-6(2-3-7)9-4-8-5/h4H,2-3H2,1H3",PCLITLDOTJTVDJ-UHFFFAOYSA-N,?,,SANGSTER (1993),2.12
102153,533-74-4,533-74-4,[H]C([H])([H])N1C(=S)SC([H])([H])N(C([H])([H])[H])C1([H])[H],DMTT (DAZOMET),Dazomet,"3,5-dimethyl-1,3,5-thiadiazinane-2-thione",6758,DTXSID7024902,CN1CSC(=S)N(C)C1,"InChI=1S/C5H10N2S2/c1-6-3-7(2)5(8)9-4-6/h3-4H2,1-2H3",QAYICIQNSGETAS-UHFFFAOYSA-N,?,,"TOMLIN,C (2003)",0.63
102154,533-75-5,533-75-5,[H]OC1=C([H])C([H])=C([H])C([H])=C([H])C1=O,TROPOLONE,Tropolone,"2-hydroxycyclohepta-2,4,6-trien-1-one",6759,DTXSID8049416,OC1=CC=CC=CC1=O,"InChI=1S/C7H6O2/c8-6-4-2-1-3-5-7(6)9/h1-5H,(H,8,9)",MDYOLVRUBBJPFM-UHFFFAOYSA-N,?,,"HANSCH,C ET AL. (1995)",0.53
102155,534-13-4,534-13-4,[H]N(C(=S)N([H])C([H])([H])[H])C([H])([H])[H],"N,N-DIMETHYLTHIOUREA","N,N'-Dimethylthiourea","1,3-dimethylthiourea",6760,DTXSID2042191,CNC(=S)NC,"InChI=1S/C3H8N2S/c1-4-3(6)5-2/h1-2H3,(H2,4,5,6)",VLCDUOXHFNUCKK-UHFFFAOYSA-N,?,,"HANSCH,C ET AL. (1995)",-0.24
102157,534-25-8,534-25-8,[H]C1=C([H])C(=S)SS1,"1,2-Dithiole-3-thione","1,2-Dithiol-3-thione","3H-1,2-dithiole-3-thione",6762,DTXSID7037052,S=C1C=CSS1,InChI=1S/C3H2S3/c4-3-1-2-5-6-3/h1-2H,LZENMJMJWQSSNJ-UHFFFAOYSA-N,?,,"BONA,M ET AL. (1995)",1.58
102158,534-26-9,534-26-9,[H]N1C(C([H])([H])[H])=NC([H])([H])C1([H])[H],2-METHYL-2-IMIDAZOLINE,"1H-Imidazole, 4,5-dihydro-2-methyl-","2-methyl-4,5-dihydro-1H-imidazole",6763,DTXSID2060204,CC1NCCN=1,"InChI=1S/C4H8N2/c1-4-5-2-3-6-4/h2-3H2,1H3,(H,5,6)",VWSLLSXLURJCDF-UHFFFAOYSA-N,?,,"HANSCH,C ET AL. (1995)",0.52
102159,534-52-1,534-52-1,[H]OC1=C([N+](=O)[O-])C([H])=C([N+](=O)[O-])C([H])=C1C([H])([H])[H],"4,6-DINITRO-O-CRESOL","2-Methyl-4,6-dinitrophenol","2-methyl-4,6-dinitrophenol",6764,DTXSID1022053,Cc1cc(cc(c1O)[N+]([O-])=O)[N+]([O-])=O,"InChI=1S/C7H6N2O5/c1-4-2-5(8(11)12)3-6(7(4)10)9(13)14/h2-3,10H,1H3",ZXVONLUNISGICL-UHFFFAOYSA-N,?,,"HANSCH,C ET AL. (1995)",2.13
102161,535-75-1,NOCAS_862144,[H]OC(=O)C1([H])N([H])C([H])([H])C([H])([H])C([H])([H])C1([H])[H],2-PIPERIDINECARBOXYLIC ACID,,,6766,DTXSID40862144,OC(=O)C1CCCCN1,"InChI=1S/C6H11NO2/c8-6(9)5-3-1-2-4-7-5/h5,7H,1-4H2,(H,8,9)",HXEACLLIILLPRG-UHFFFAOYSA-N,?,,"TSAI,RS ET AL. (1991)",-2.31
102162,535-77-3,535-77-3,[H]C1=C([H])C(C([H])([H])[H])=C([H])C(C([H])(C([H])([H])[H])C([H])([H])[H])=C1[H],M-CYMENE,m-Cymene,1-methyl-3-propan-2-ylbenzene,6767,DTXSID2060206,Cc1cccc(c1)C(C)C,"InChI=1S/C10H14/c1-8(2)10-6-4-5-9(3)7-10/h4-8H,1-3H3",XCYJPXQACVEIOS-UHFFFAOYSA-N,?,,"SHERBLOM,PM & EGANHOUSE,RP (1988)",4.5
102163,535-80-8,535-80-8,[H]OC(=O)C1=C([H])C(Cl)=C([H])C([H])=C1[H],M-CHLOROBENZOIC ACID,3-Chlorobenzoic acid,3-chlorobenzoic acid,6768,DTXSID9024770,OC(=O)c1cccc(Cl)c1,"InChI=1S/C7H5ClO2/c8-6-3-1-2-5(4-6)7(9)10/h1-4H,(H,9,10)",LULAYUGMBFYYEX-UHFFFAOYSA-N,?,,"HANSCH,C ET AL. (1995)",2.68
102165,536-59-4,536-59-4,[H]OC([H])([H])C1=C([H])C([H])([H])C([H])(C(=C([H])[H])C([H])([H])[H])C([H])([H])C1([H])[H],"1-Cyclohexene-1-methanol, 4-(1-methylethenyl)-",4-Isopropenylcyclohex-1-en-1-ylmethanol,[4-(prop-1-en-2-yl)cyclohex-1-en-1-yl]methanol,6770,DTXSID4052180,CC(=C)C1CCC(CO)=CC1,"InChI=1S/C10H16O/c1-8(2)10-5-3-9(7-11)4-6-10/h3,10-11H,1,4-7H2,2H3",NDTYTMIUWGWIMO-UHFFFAOYSA-N,?,,"GRIFFIN,S ET AL. (1999)",3.17
102166,536-66-3,536-66-3,[H]OC(=O)C1=C([H])C([H])=C(C([H])(C([H])([H])[H])C([H])([H])[H])C([H])=C1[H],CUMIC ACID,4-Isopropylbenzoic acid,4-propan-2-ylbenzoic acid,6771,DTXSID6060210,CC(C)c1ccc(cc1)C(O)=O,"InChI=1S/C10H12O2/c1-7(2)8-3-5-9(6-4-8)10(11)12/h3-7H,1-2H3,(H,11,12)",CKMXAIVXVKGGFM-UHFFFAOYSA-N,?,,"HANSCH,C ET AL. (1995)",3.4