ChemID,source_casrn,CAS,SMILES,NAME,preferred_name,iupac,MPID,dsstox_substance_id,Canonical_QSARr,InChI_Code_QSARr,InChI Key_QSARr,Salt_Solvent,Salt_Solvent_ID,Kow Reference,LogP
101603,149-57-5,149-57-5,[H]OC(=O)C([H])(C([H])([H])C([H])([H])[H])C([H])([H])C([H])([H])C([H])([H])C([H])([H])[H],"HEXANOIC ACID, 2-ETHYL-",2-Ethylhexanoic acid,2-ethylhexanoic acid,6233,DTXSID9025293,CCCCC(CC)C(O)=O,"InChI=1S/C8H16O2/c1-3-5-6-7(4-2)8(9)10/h7H,3-6H2,1-2H3,(H,9,10)",OBETXYAYXDNJHR-UHFFFAOYSA-N,?,,SANGSTER (1993),2.64
101604,149-73-5,149-73-5,[H]C([H])([H])OC([H])(OC([H])([H])[H])OC([H])([H])[H],TRIMETHOXYMETHANE,Trimethoxymethane,trimethoxymethane,6234,DTXSID7027122,COC(OC)OC,"InChI=1S/C4H10O3/c1-5-4(6-2)7-3/h4H,1-3H3",PYOKUURKVVELLB-UHFFFAOYSA-N,?,,"HANSCH,C ET AL. (1995)",0.25
101606,150-13-0,150-13-0,[H]OC(=O)C1=C([H])C([H])=C(N([H])[H])C([H])=C1[H],4-AMINOBENZOIC ACID,4-Aminobenzoic acid,4-aminobenzoic acid,6236,DTXSID6024466,Nc1ccc(cc1)C(O)=O,"InChI=1S/C7H7NO2/c8-6-3-1-5(2-4-6)7(9)10/h1-4H,8H2,(H,9,10)",ALYNCZNDIQEVRV-UHFFFAOYSA-N,?,,"HANSCH,C ET AL. (1995)",0.83
101607,150-19-6,150-19-6,[H]OC1=C([H])C([H])=C([H])C(OC([H])([H])[H])=C1[H],M-METHOXYPHENOL,3-Methoxyphenol,3-methoxyphenol,6237,DTXSID0022012,COc1cccc(O)c1,"InChI=1S/C7H8O2/c1-9-7-4-2-3-6(8)5-7/h2-5,8H,1H3",ASHGTJPOSUFTGB-UHFFFAOYSA-N,?,,"HANSCH,C ET AL. (1995)",1.34
101609,150-68-5,150-68-5,[H]C1=C([H])C(N([H])C(=O)N(C([H])([H])[H])C([H])([H])[H])=C([H])C([H])=C1Cl,MONURON,Monuron,"3-(4-chlorophenyl)-1,1-dimethylurea",6239,DTXSID0020311,CN(C)C(=O)Nc1ccc(Cl)cc1,"InChI=1S/C9H11ClN2O/c1-12(2)9(13)11-8-5-3-7(10)4-6-8/h3-6H,1-2H3,(H,11,13)",BMLIZLVNXIYGCK-UHFFFAOYSA-N,?,,"HANSCH,C ET AL. (1995)",1.94
101611,150-78-7,150-78-7,[H]C1=C([H])C(OC([H])([H])[H])=C([H])C([H])=C1OC([H])([H])[H],P-DIMETHOXYBENZENE,Hydroquinone dimethyl ether,"1,4-dimethoxybenzene",6241,DTXSID0022014,COc1ccc(cc1)OC,"InChI=1S/C8H10O2/c1-9-7-3-5-8(10-2)6-4-7/h3-6H,1-2H3",OHBQPCCCRFSCAX-UHFFFAOYSA-N,?,,"DUNN,WJ ET AL. (1983)",2.04
101612,151-10-0,151-10-0,[H]C1=C([H])C(OC([H])([H])[H])=C([H])C(OC([H])([H])[H])=C1[H],M-DIMETHOXYBENZENE,"1,3-Dimethoxybenzene","1,3-dimethoxybenzene",6242,DTXSID2047060,COc1cc(ccc1)OC,"InChI=1S/C8H10O2/c1-9-7-4-3-5-8(6-7)10-2/h3-6H,1-2H3",DPZNOMCNRMUKPS-UHFFFAOYSA-N,?,,"NAKAGAWA,Y ET AL. (1992)",2.21
101613,151-21-3,151-21-3,[H]OS(=O)(=O)OC([H])([H])C([H])([H])C([H])([H])C([H])([H])C([H])([H])C([H])([H])C([H])([H])C([H])([H])C([H])([H])C([H])([H])C([H])([H])C([H])([H])[H],"DODECYL SULFATE, SODIUM SALT",Sodium dodecyl sulfate,sodium dodecyl sulfate,6243,DTXSID1026031,CCCCCCCCCCCCOS(O)(=O)=O,"InChI=1S/C12H26O4S/c1-2-3-4-5-6-7-8-9-10-11-12-16-17(13,14)15/h2-12H2,1H3,(H,13,14,15)",MOTZDAYCYVMXPC-UHFFFAOYSA-N,[Na+],7,"HANSCH,C ET AL. (1995)",1.6
101616,152-02-3,152-02-3,[H]OC1=C([H])C([H])=C2C(=C1[H])C13C([H])([H])C([H])([H])N(C([H])([H])C([H])=C([H])[H])C([H])(C2([H])[H])C1([H])C([H])([H])C([H])([H])C([H])([H])C3([H])[H],LEVALLORPHAN,Levallorphan,17-(prop-2-en-1-yl)morphinan-3-ol,6245,DTXSID9023205,C=CCN1CCC23CCCCC2C1Cc1ccc(O)cc31,"InChI=1S/C19H25NO/c1-2-10-20-11-9-19-8-4-3-5-16(19)18(20)12-14-6-7-15(21)13-17(14)19/h2,6-7,13,16,18,21H,1,3-5,8-12H2",OZYUPQUCAUTOBP-UHFFFAOYSA-N,?,,"HANSCH,C ET AL. (1995)",3.48
101617,152-47-6,152-47-6,[H]C1=C([H])N=C(N([H])S(=O)(=O)C2=C([H])C([H])=C(N([H])[H])C([H])=C2[H])C(OC([H])([H])[H])=N1,SULFALENE,Sulfalene,4-amino-N-(3-methoxypyrazin-2-yl)benzenesulfonamide,6246,DTXSID2046179,COc1[n]cc[n]c1NS(=O)(=O)c1ccc(N)cc1,"InChI=1S/C11H12N4O3S/c1-18-11-10(13-6-7-14-11)15-19(16,17)9-4-2-8(12)3-5-9/h2-7H,12H2,1H3,(H,13,15)",KXRZBTAEDBELFD-UHFFFAOYSA-N,?,,"HANSCH,C ET AL. (1995)",0.7
101618,152-58-9,152-58-9,[H]OC([H])([H])C(=O)C1(O[H])C([H])([H])C([H])([H])C2([H])C3([H])C([H])([H])C([H])([H])C4=C([H])C(=O)C([H])([H])C([H])([H])C4(C([H])([H])[H])C3([H])C([H])([H])C([H])([H])C12C([H])([H])[H],CORTEXOLONE,Cortodoxone,"17,21-dihydroxypregn-4-ene-3,20-dione",6247,DTXSID8045642,CC12CCC3C(CCC4=CC(=O)CCC43C)C1CCC2(O)C(=O)CO,"InChI=1S/C21H30O4/c1-19-8-5-14(23)11-13(19)3-4-15-16(19)6-9-20(2)17(15)7-10-21(20,25)18(24)12-22/h11,15-17,22,25H,3-10,12H2,1-2H3",WHBHBVVOGNECLV-UHFFFAOYSA-N,?,,SANGSTER (1994),3.08
101620,153-61-7,153-61-7,[H]OC(=O)C1=C(C([H])([H])OC(=O)C([H])([H])[H])C([H])([H])SC2([H])N1C(=O)C2([H])N([H])C(=O)C([H])([H])C1=C([H])C([H])=C([H])S1,CEPHALOTHIN,Cephalothin,"(6R,7R)-3-[(acetyloxy)methyl]-8-oxo-7-[(thiophen-2-ylacetyl)amino]-5-thia-1-azabicyclo[4.2.0]oct-2-ene-2-carboxylic acid",6249,DTXSID4022783,CC(=O)OCC1CSC2C(NC(=O)Cc3ccc[s]3)C(=O)N2C=1C(O)=O,"InChI=1S/C16H16N2O6S2/c1-8(19)24-6-9-7-26-15-12(14(21)18(15)13(9)16(22)23)17-11(20)5-10-3-2-4-25-10/h2-4,12,15H,5-7H2,1H3,(H,17,20)(H,22,23)",XIURVHNZVLADCM-UHFFFAOYSA-N,?,,"HANSCH,C ET AL. (1995)",-0.41
101621,153-78-6,153-78-6,[H]C1=C([H])C2=C(C([H])=C1[H])C([H])([H])C1=C2C([H])=C([H])C(N([H])[H])=C1[H],2-AMINOFLUORENE,2-Aminofluorene,9H-fluoren-2-amine,6250,DTXSID1049223,Nc1cc2Cc3ccccc3-c2cc1,"InChI=1S/C13H11N/c14-11-5-6-13-10(8-11)7-9-3-1-2-4-12(9)13/h1-6,8H,7,14H2",CFRFHWQYWJMEJN-UHFFFAOYSA-N,?,,"DEBNATH,AK ET AL. (1992)",3.14
101622,154-21-2,154-21-2,[H]OC1([H])C([H])(SC([H])([H])[H])OC([H])(C([H])(N([H])C(=O)C2([H])N(C([H])([H])[H])C([H])([H])C([H])(C([H])([H])C([H])([H])C([H])([H])[H])C2([H])[H])C([H])(O[H])C([H])([H])[H])C([H])(O[H])C1([H])O[H],LINCOMYCIN,Lincomycin,"methyl (5R)-5-[(1R,2R)-2-hydroxy-1-{[(4R)-1-methyl-4-propyl-L-prolyl]amino}propyl]-1-thio-beta-L-arabinopyranoside",6251,DTXSID3023215,CC(O)C(NC(=O)C1CC(CCC)CN1C)C1OC(SC)C(O)C(O)C1O,"InChI=1S/C18H34N2O6S/c1-5-6-10-7-11(20(3)8-10)17(25)19-12(9(2)21)16-14(23)13(22)15(24)18(26-16)27-4/h9-16,18,21-24H,5-8H2,1-4H3,(H,19,25)",OJMMVQQUTAEWLP-UHFFFAOYSA-N,?,,"HANSCH,C ET AL. (1995)",0.2
101624,154-42-7,154-42-7,[H]C1=NC2=C(C(=S)N([H])C(N([H])[H])=N2)N1[H],THIOGUANINE,6-Thioguanine,"2-amino-1,7-dihydro-6H-purine-6-thione",6253,DTXSID6023652,NC1NC(=S)c2[nH]c[n]c2N=1,"InChI=1S/C5H5N5S/c6-5-9-3-2(4(11)10-5)7-1-8-3/h1H,(H4,6,7,8,9,10,11)",WYWHKKSPHMUBEB-UHFFFAOYSA-N,?,,"HANSCH,C ET AL. (1995)",-0.07
101625,154-93-8,154-93-8,[H]N(C(=O)N(N=O)C([H])([H])C([H])([H])Cl)C([H])([H])C([H])([H])Cl,"1,3-BIS(2-CHLOROET)-1-NITROSOUREA",Carmustine,"1,3-bis(2-chloroethyl)-1-nitrosourea",6254,DTXSID8022743,O=NN(CCCl)C(=O)NCCCl,"InChI=1S/C5H9Cl2N3O2/c6-1-3-8-5(11)10(9-12)4-2-7/h1-4H2,(H,8,11)",DLGOEMSEDOSKAD-UHFFFAOYSA-N,?,,"HANSCH,C ET AL. (1995)",1.53
101629,156-38-7,156-38-7,[H]OC(=O)C([H])([H])C1=C([H])C([H])=C(O[H])C([H])=C1[H],P-HYDROXYPHENYLACETIC ACID,"Benzeneacetic acid, 4-hydroxy-",2-(4-hydroxyphenyl)acetic acid,6257,DTXSID5059745,Oc1ccc(CC(O)=O)cc1,"InChI=1S/C8H8O3/c9-7-3-1-6(2-4-7)5-8(10)11/h1-4,9H,5H2,(H,10,11)",XQXPVVBIMDBYFF-UHFFFAOYSA-N,?,,"HANSCH,C ET AL. (1995)",0.75
101631,156-54-7,156-54-7,[H]OC(=O)C([H])([H])C([H])([H])C([H])([H])[H],"BUTANOIC ACID, SODIUM SALT",Sodium butyrate,sodium butanoate,6259,DTXSID3037672,CCCC(O)=O,"InChI=1S/C4H8O2/c1-2-3-4(5)6/h2-3H2,1H3,(H,5,6)",FERIUCNNQQJTOY-UHFFFAOYSA-N,[Na+],7,POMONA (1987),-3.2
101632,156-59-2|156-60-5,156-59-2|156-60-5,[H]/C(Cl)=C(\[H])Cl,"1,2-DICHLOROETHENE (CIS), 1,2-DICHLOROETHENE (TRANS)","(Z)-1,2-Dichloroethylene","(Z)-1,2-dichloroethene",6260|6261,DTXSID2024030|DTXSID7024031,ClC=CCl,InChI=1S/C2H2Cl2/c3-1-2-4/h1-2H/b2-1-,KFUSEUYYWQURPO-UPHRSURJSA-N,?,,"HANSCH,C ET AL. (1995)",1.86
101634,156-82-1,141-90-2,[H]C1=C([H])N([H])C(=S)N([H])C1=O,2-THIOURACIL,Thiouracil,"2-thioxo-2,3-dihydropyrimidin-4(1H)-one",6262,DTXSID4021347,O=C1C=CNC(=S)N1,"InChI=1S/C4H4N2OS/c7-3-1-2-5-4(8)6-3/h1-2H,(H2,5,6,7,8)",ZEMGGZBWXRYJHK-UHFFFAOYSA-N,?,,"HANSCH,C ET AL. (1995)",-0.28
101637,189-92-4,189-92-4,[H]C1=C([H])C([H])=C2C(=N1)C1=C3C(=C2[H])C([H])=C([H])C2=C3C(=C([H])C([H])=C2[H])C([H])=C1[H],10-Azabenzo(a)pyrene,10-Azabenzo(a)pyrene,"pyreno[1,2-b]pyridine",6264,DTXSID10172282,c1c2ccc[n]c2c2ccc3cccc4ccc1c2c34,InChI=1S/C19H11N/c1-3-12-6-7-14-11-15-5-2-10-20-19(15)16-9-8-13(4-1)17(12)18(14)16/h1-11H,BYFIUFNRSNKODH-UHFFFAOYSA-N,?,,"HELWEG,C ET AL. (1997)",5.53
101638,191-07-1,191-07-1,[H]C1=C([H])C2=C([H])C([H])=C3C([H])=C([H])C4=C([H])C([H])=C5C([H])=C([H])C6=C([H])C([H])=C1C1=C2C3=C4C5=C61,CORONENE,Coronene,coronene,6265,DTXSID5047740,c1cc2ccc3ccc4ccc5ccc6ccc1c1c6c5c4c3c21,InChI=1S/C24H12/c1-2-14-5-6-16-9-11-18-12-10-17-8-7-15-4-3-13(1)19-20(14)22(16)24(18)23(17)21(15)19/h1-12H,VPUGDVKSAQVFFS-UHFFFAOYSA-N,?,,"DE VOOGT,P ET AL. (1990)",7.64
101639,191-24-2,191-24-2,[H]C1=C([H])C2=C3C([H])=C([H])C([H])=C4C([H])=C([H])C5=C([H])C([H])=C6C([H])=C([H])C(=C1[H])C2=C6C5=C43,BENZO(GHI)PERYLENE,"Benzo(g,h,i)perylene",benzo[ghi]perylene,6266,DTXSID5023908,c1cc2ccc3cccc4c3c2c2c3c4cccc3ccc21,InChI=1S/C22H12/c1-3-13-7-9-15-11-12-16-10-8-14-4-2-6-18-17(5-1)19(13)21(15)22(16)20(14)18/h1-12H,GYFAGKUZYNFMBN-UHFFFAOYSA-N,?,,"HANSCH,C ET AL. (1995)",6.63
101641,191-30-0,191-30-0,[H]C1=C([H])C([H])=C2C(=C1[H])C([H])=C1C([H])=C([H])C3=C([H])C([H])=C([H])C4=C5C([H])=C([H])C([H])=C([H])C5=C2C1=C34,"DIBENZO[a,l]PYRENE","Dibenzo[a,l]pyrene",,6268,DTXSID9059753,c1c2ccc3cccc4c3c2c(c2ccccc21)c1ccccc14,InChI=1S/C24H14/c1-2-8-18-16(6-1)14-17-13-12-15-7-5-11-20-19-9-3-4-10-21(19)24(18)23(17)22(15)20/h1-14H,JNTHRSHGARDABO-UHFFFAOYSA-N,?,,"DE VOOGT,P ET AL. (1990)",7.71
101642,191-68-4,191-68-4,[H]C1=C([H])C([H])=C2C(=C1[H])C1=C([H])C([H])=C([H])C([H])=C1C1=C3C([H])=C([H])C([H])=C([H])C3=C3C([H])=C([H])C([H])=C([H])C3=C21,"DIBENZO[G,P]CHRYSENE","Dibenzo(g,p)chrysene",,6269,DTXSID50172620,c1cccc2c3ccccc3c3c(c21)c1ccccc1c1ccccc13,InChI=1S/C26H16/c1-5-13-21-17(9-1)18-10-2-6-14-22(18)26-24-16-8-4-12-20(24)19-11-3-7-15-23(19)25(21)26/h1-16H,GQDKQZAEQBGVBS-UHFFFAOYSA-N,?,,"DE VOOGT,P ET AL. (1990)",8.39
101643,192-97-2,192-97-2,[H]C1=C([H])C([H])=C2C(=C1[H])C1=C([H])C([H])=C([H])C3=C1C1=C2C([H])=C([H])C([H])=C1C([H])=C3[H],BENZO(E)PYRENE,Benzo(e)pyrene,benzo[e]pyrene,6270,DTXSID3023764,c1cc2cccc3c2c2c(cccc21)c1ccccc31,InChI=1S/C20H12/c1-2-8-16-15(7-1)17-9-3-5-13-11-12-14-6-4-10-18(16)20(14)19(13)17/h1-12H,TXVHTIQJNYSSKO-UHFFFAOYSA-N,?,,"DE VOOGT,P ET AL. (1990)",6.44
101645,198-55-0,198-55-0,[H]C1=C([H])C2=C([H])C([H])=C([H])C3=C2C(=C1[H])C1=C2C(=C([H])C([H])=C1[H])C([H])=C([H])C([H])=C32,PERYLENE,Perylene,perylene,6272,DTXSID4047753,c1ccc2c3c(cccc31)c1cccc3cccc2c31,InChI=1S/C20H12/c1-5-13-6-2-11-17-18-12-4-8-14-7-3-10-16(20(14)18)15(9-1)19(13)17/h1-12H,CSHWQDPOILHKBI-UHFFFAOYSA-N,?,,SANGSTER (1993),6.25
101646,205-43-6,205-43-6,[H]C1=C([H])C([H])=C2C(=C1[H])SC1=C([H])C([H])=C3C([H])=C([H])C([H])=C([H])C3=C12,"Benzo(b)naphtho(1,2-d)thiophene","Benzo[b]naphtho[1,2-d]thiophene","naphtho[2,1-b][1]benzothiole",6273,DTXSID4075370,c1cccc2c3c(ccc21)[s]c1ccccc13,InChI=1S/C16H10S/c1-2-6-12-11(5-1)9-10-15-16(12)13-7-3-4-8-14(13)17-15/h1-10H,XZUMOEVHCZXMTR-UHFFFAOYSA-N,?,,"ANDERSSON,JT & SCHRADER,W (1999)",5.19
101647,205-99-2,205-99-2,[H]C1=C([H])C([H])=C2C(=C1[H])C([H])=C1C3=C([H])C([H])=C([H])C([H])=C3C3=C([H])C([H])=C([H])C2=C31,BENZO(B)FLUORANTHENE,Benzo(b)fluoranthene,benzo[e]acephenanthrylene,6274,DTXSID0023907,c1c2c3c(cccc3-c3ccccc3-2)c2ccccc21,InChI=1S/C20H12/c1-2-7-14-13(6-1)12-19-16-9-4-3-8-15(16)18-11-5-10-17(14)20(18)19/h1-12H,FTOVXSOBNPWTSH-UHFFFAOYSA-N,?,,"WANG,L ET AL. (1986)",5.78
101649,207-08-9,207-08-9,[H]C1=C([H])C([H])=C2C([H])=C3C(=C([H])C2=C1[H])C1=C([H])C([H])=C([H])C2=C1C3=C([H])C([H])=C2[H],BENZO(K)FLUORANTHENE,Benzo(k)fluoranthene,benzo[k]fluoranthene,6276,DTXSID0023909,c1c2-c3cccc4cccc(c43)-c2cc2ccccc21,InChI=1S/C20H12/c1-2-6-15-12-19-17-10-4-8-13-7-3-9-16(20(13)17)18(19)11-14(15)5-1/h1-12H,HAXBIWFMXWRORI-UHFFFAOYSA-N,?,,"DE MAAGD,PG ET AL. (1998)",6.11
101650,208-96-8,208-96-8,[H]C1=C([H])C2=C([H])C([H])=C([H])C3=C2C(=C1[H])C([H])=C3[H],ACENAPHTHYLENE,Acenaphthylene,acenaphthylene,6277,DTXSID3023845,c1ccc2C=Cc3cccc1c32,InChI=1S/C12H8/c1-3-9-4-2-6-11-8-7-10(5-1)12(9)11/h1-8H,HXGDTGSAIMULJN-UHFFFAOYSA-N,?,,"HANSCH,C ET AL. (1995)",3.94
101651,213-46-7,213-46-7,[H]C1=C([H])C2=C([H])C([H])=C3C4=C([H])C([H])=C5C([H])=C([H])C([H])=C([H])C5=C4C([H])=C([H])C3=C2C([H])=C1[H],PICENE,Picene,PICENE,6278,DTXSID8073895,c1cc2c(ccc3c4ccccc4ccc23)c2ccccc21,InChI=1S/C22H14/c1-3-7-17-15(5-1)9-11-21-19(17)13-14-20-18-8-4-2-6-16(18)10-12-22(20)21/h1-14H,GBROPGWFBFCKAG-UHFFFAOYSA-N,?,,"DE VOOGT,P ET AL. (1990)",7.11
101653,215-58-7,215-58-7,[H]C1=C([H])C2=C(C([H])=C1[H])C([H])=C1C(=C2[H])C2=C(C([H])=C([H])C([H])=C2[H])C2=C1C([H])=C([H])C([H])=C2[H],"1,2,3,4-DIBENZANTHRACENE","Dibenz[a,c]anthracene",benzo[f]tetraphene,6280,DTXSID9049245,c1c2c3ccccc3c3ccccc3c2cc2ccccc21,InChI=1S/C22H14/c1-2-8-16-14-22-20-12-6-4-10-18(20)17-9-3-5-11-19(17)21(22)13-15(16)7-1/h1-14H,RAASUWZPTOJQAY-UHFFFAOYSA-N,?,,"HELWEG,C ET AL. (1997A)",6.41
101654,215-62-3,215-62-3,[H]C1=C([H])C([H])=C2C([H])=C3C(=NC2=C1[H])C1=C([H])C([H])=C([H])C([H])=C1C1=C([H])C([H])=C([H])C([H])=C31,"DIBENZ(A,C)ACRIDINE",,,6281,DTXSID40878543,c1c2c([n]c3ccccc31)c1ccccc1c1ccccc12,InChI=1S/C21H13N/c1-6-12-20-14(7-1)13-19-17-10-3-2-8-15(17)16-9-4-5-11-18(16)21(19)22-20/h1-13H,GUZBPGZOTDAWBO-UHFFFAOYSA-N,?,,"HELWEG,C ET AL. (1997)",5.66
101655,217-59-4,217-59-4,[H]C1=C([H])C([H])=C2C(=C1[H])C1=C([H])C([H])=C([H])C([H])=C1C1=C([H])C([H])=C([H])C([H])=C21,TRIPHENYLENE,Triphenylene,Triphenylene,6282,DTXSID9059757,c1cccc2c1c1ccccc1c1ccccc12,InChI=1S/C18H12/c1-2-8-14-13(7-1)15-9-3-4-11-17(15)18-12-6-5-10-16(14)18/h1-12H,SLGBZMMZGDRARJ-UHFFFAOYSA-N,?,,"WANG,L ET AL. (1986)",5.49
101657,219-25-0,219-25-0,[H]C1=C([H])C2=C(S1)C([H])=C([H])C1=C3C([H])=C([H])C([H])=C([H])C3=C([H])C([H])=C21,"Phenanthro[2,1-b]thiophene","Phenanthro(2,1-b)thiophene","naphtho[2,1-e][1]benzothiole",6284,DTXSID10176306,c1cccc2c3ccc4[s]ccc4c3ccc21,InChI=1S/C16H10S/c1-2-4-12-11(3-1)5-6-14-13(12)7-8-16-15(14)9-10-17-16/h1-10H,WYAKNOROQVZSDA-UHFFFAOYSA-N,?,,"ANDERSSON,JT & SCHRADER,W (1999)",5.35
101658,224-41-9,224-41-9,[H]C1=C([H])C([H])=C2C(=C1[H])C([H])=C([H])C1=C([H])C3=C(C([H])=C12)C1=C([H])C([H])=C([H])C([H])=C1C([H])=C3[H],"DIBENZ(A,J)ANTHRACENE","Dibenz[a,j]anthracene",,6285,DTXSID8074811,c1c2ccc3ccccc3c2cc2c3ccccc3ccc21,InChI=1S/C22H14/c1-3-7-19-15(5-1)9-11-17-13-18-12-10-16-6-2-4-8-20(16)22(18)14-21(17)19/h1-14H,KLIHYVJAYWCEDM-UHFFFAOYSA-N,?,,"HELWEG,C ET AL. (1997A)",6.54
101659,224-42-0,224-42-0,[H]C1=C([H])C2=C([H])C([H])=C([H])C([H])=C2C2=C([H])C3=C(N=C12)C([H])=C([H])C1=C([H])C([H])=C([H])C([H])=C13,"DIBENZ[a,j]ACRIDINE","Dibenz[a,j]acridine",,6286,DTXSID4059758,c1c2c(ccc3ccccc32)[n]c2ccc3ccccc3c21,InChI=1S/C21H13N/c1-3-7-16-14(5-1)9-11-20-18(16)13-19-17-8-4-2-6-15(17)10-12-21(19)22-20/h1-13H,ANUCHZVCBDOPOX-UHFFFAOYSA-N,?,,"HELWEG,C ET AL. (1997A)",5.63
101661,225-11-6,225-11-6,[H]C1=C([H])C2=C([H])C([H])=C([H])C([H])=C2C2=C([H])C3=C(N=C12)C([H])=C([H])C([H])=C3[H],BENZ(A)ACRIDINE,Benz[a]acridine,benzo[a]acridine,6288,DTXSID9075371,c1c2c3ccccc3ccc2[n]c2ccccc21,InChI=1S/C17H11N/c1-3-7-14-12(5-1)9-10-17-15(14)11-13-6-2-4-8-16(13)18-17/h1-11H,JEGZRTMZYUDVBF-UHFFFAOYSA-N,?,,"HELWEG,C ET AL. (1997A)",4.48
101662,226-36-8,226-36-8,[H]C1=C([H])C2=C([H])C([H])=C([H])C([H])=C2C2=C([H])C3=C(N=C12)C1=C([H])C([H])=C([H])C([H])=C1C([H])=C3[H],"DIBENZ(A,H)ACRIDINE","Dibenz[a,h]acridine",,6289,DTXSID3059761,c1c2c(ccc3ccccc32)[n]c2c3ccccc3ccc21,InChI=1S/C21H13N/c1-3-7-17-14(5-1)11-12-20-19(17)13-16-10-9-15-6-2-4-8-18(15)21(16)22-20/h1-13H,JNCSIWAONQTVCF-UHFFFAOYSA-N,?,,"HELWEG,C ET AL. (1997A)",5.73
101663,226-88-0,226-88-0,[H]C1=C([H])C([H])=C2C([H])=C3C([H])=C4C(=C([H])C3=C([H])C2=C1[H])C([H])=C([H])C1=C([H])C([H])=C([H])C([H])=C14,BENZO[A]NAPHTHACENE,Benzo(a)naphthacene,,6290,DTXSID00177120,c1c2c3ccccc3ccc2cc2cc3ccccc3cc21,InChI=1S/C22H14/c1-2-7-17-12-20-14-22-18(13-19(20)11-16(17)6-1)10-9-15-5-3-4-8-21(15)22/h1-14H,JTRPLRMCBJSBJV-UHFFFAOYSA-N,?,,"WANG,L ET AL. (1986)",6.81
101665,230-07-9,230-07-9,[H]C1=NC2=C(C([H])=C1[H])C1=C(N=C([H])C([H])=C1[H])C([H])=C2[H],"4,7-PHENANTHROLINE","4,7-Phenanthroline","4,7-Phenanthroline",6292,DTXSID30177552,c1cc2[n]cccc2c2ccc[n]c21,InChI=1S/C12H8N2/c1-3-9-10-4-2-8-14-12(10)6-5-11(9)13-7-1/h1-8H,DATYUTWESAKQQM-UHFFFAOYSA-N,?,,"HANSCH,C ET AL. (1995)",2.05
101666,230-17-1,230-17-1,[H]C1=C([H])C([H])=C2C(=C1[H])N=NC1=C([H])C([H])=C([H])C([H])=C12,"5,6-DIAZAPHENANTHRENE",Benzo[c]cinnoline,Benzo[c]cinnoline,6293,DTXSID8074289,c1cccc2c3ccccc3[n][n]c21,InChI=1S/C12H8N2/c1-3-7-11-9(5-1)10-6-2-4-8-12(10)14-13-11/h1-8H,SWJXWSAKHXBQSY-UHFFFAOYSA-N,?,,"HANSCH,C ET AL. (1995)",2.4
101667,230-27-3,230-27-3,[H]C1=C([H])C([H])=C2C(=N1)C1=C([H])C([H])=C([H])C([H])=C1C([H])=C2[H],BENZO(H)QUINOLINE,Benzo[h]quinoline,Benzo[h]quinoline,6294,DTXSID1075199,c1cccc2ccc3ccc[n]c3c21,InChI=1S/C13H9N/c1-2-6-12-10(4-1)7-8-11-5-3-9-14-13(11)12/h1-9H,WZJYKHNJTSNBHV-UHFFFAOYSA-N,?,,SANGSTER (1993),3.43
101670,234-41-3,234-41-3,[H]C1=C([H])C2=C([H])C([H])=C3C([H])=C([H])C([H])=C([H])C3=C2S1,"Naphtho[1,2,b]thiophene","Naphtho(1,2-b)thiophene",benzo[g][1]benzothiole,6296,DTXSID50177953,c1cccc2ccc3cc[s]c3c21,InChI=1S/C12H8S/c1-2-4-11-9(3-1)5-6-10-7-8-13-12(10)11/h1-8H,XHYRHAQEXJIVJX-UHFFFAOYSA-N,?,,"ANDERSSON,JT & SCHRADER,W (1999)",4.55
101671,238-84-6,238-84-6,[H]C1=C([H])C2=C([H])C([H])=C3C4=C(C([H])=C([H])C([H])=C4[H])C([H])([H])C3=C2C([H])=C1[H],11H-BENZO(A)FLUORENE,11H-Benzo[a]fluorene,11H-Benzo[a]fluorene,6297,DTXSID3075204,C1c2c3ccccc3ccc2-c2ccccc21,"InChI=1S/C17H12/c1-3-7-14-12(5-1)9-10-16-15-8-4-2-6-13(15)11-17(14)16/h1-10H,11H2",HKMTVMBEALTRRR-UHFFFAOYSA-N,?,,SANGSTER (1993),5.4
101672,239-64-5,239-64-5,[H]C1=C([H])C([H])=C2C(=C1[H])C([H])=C([H])C1=C2N([H])C2=C3C([H])=C([H])C([H])=C([H])C3=C([H])C([H])=C12,"13H-DIBENZO(A,I)CARBAZOLE","1,2;7,8-Dibenzocarbazole",,6298,DTXSID9075373,c1cc2c([nH]c3c4ccccc4ccc23)c2ccccc21,"InChI=1S/C20H13N/c1-3-7-15-13(5-1)9-11-17-18-12-10-14-6-2-4-8-16(14)20(18)21-19(15)17/h1-12,21H",IUILSTHMSGDSHQ-UHFFFAOYSA-N,?,,"HANSCH,C ET AL. (1995)",6.4
101674,243-42-5,243-42-5,[H]C1=C([H])C([H])=C2C(=C1[H])OC1=C([H])C3=C([H])C([H])=C([H])C([H])=C3C([H])=C12,"BENZO[B]NAPHTHO[2,3-D]FURAN","Benzo(b)naphtho(2,3-d)furan","naphtho[3,2-b][1]benzoxole",6300,DTXSID60179029,c1c2c3ccccc3oc2cc2ccccc21,InChI=1S/C16H10O/c1-2-6-12-10-16-14(9-11(12)5-1)13-7-3-4-8-15(13)17-16/h1-10H,FTMRMQALUDDFQO-UHFFFAOYSA-N,?,,"DE VOOGT,P ET AL. (1990)",5.05
101675,243-46-9,243-46-9,[H]C1=C([H])C([H])=C2C(=C1[H])SC1=C([H])C3=C(C([H])=C([H])C([H])=C3[H])C([H])=C12,"BENZO[B]NAPHTHO[2,3-D]THIOPHENE","Benzo[b]naphtho[2,3-d]thiophene","naphtho[3,2-b][1]benzothiole",6301,DTXSID5075442,c1c2c3ccccc3[s]c2cc2ccccc21,InChI=1S/C16H10S/c1-2-6-12-10-16-14(9-11(12)5-1)13-7-3-4-8-15(13)17-16/h1-10H,UWMISBRPSJFHIR-UHFFFAOYSA-N,?,,"DE VOOGT,P ET AL. (1990)",5.34
101676,244-63-3,244-63-3,[H]C1=NC([H])=C2C(=C1[H])C1=C([H])C([H])=C([H])C([H])=C1N2[H],"9H-PYRIDO[3,4-B]INDOLE",Norharman,9H-beta-carboline,6302,DTXSID2021070,c1[n]ccc2c1[nH]c1ccccc21,"InChI=1S/C11H8N2/c1-2-4-10-8(3-1)9-5-6-12-7-11(9)13-10/h1-7,13H",AIFRHYZBTHREPW-UHFFFAOYSA-N,?,,"BIAGI,GL ET AL. (1989)",3.17
101678,253-52-1,253-52-1,[H]C1=NN=C([H])C2=C1C([H])=C([H])C([H])=C2[H],PHTHALAZINE,Phthalazine,phthalazine,6304,DTXSID9049407,c1[n][n]cc2ccccc21,InChI=1S/C8H6N2/c1-2-4-8-6-10-9-5-7(8)3-1/h1-6H,LFSXCDWNBUNEEM-UHFFFAOYSA-N,?,,"HANSCH,C ET AL. (1995)",0.57
101679,253-66-7,253-66-7,[H]C1=NN=C2C([H])=C([H])C([H])=C([H])C2=C1[H],CINNOLINE,Cinnoline,Cinnoline,6305,DTXSID60179943,c1cccc2[n][n]ccc21,InChI=1S/C8H6N2/c1-2-4-8-7(3-1)5-6-9-10-8/h1-6H,WCZVZNOTHYJIEI-UHFFFAOYSA-N,?,,"HANSCH,C ET AL. (1995)",0.93
101680,253-82-7,253-82-7,[H]C1=NC([H])=C2C(=N1)C([H])=C([H])C([H])=C2[H],QUINAZOLINE,Quinazoline,Quinazoline,6306,DTXSID7075214,c1[n]c[n]c2ccccc21,InChI=1S/C8H6N2/c1-2-4-8-7(3-1)5-9-6-10-8/h1-6H,JWVCLYRUEFBMGU-UHFFFAOYSA-N,?,,"HANSCH,C ET AL. (1995)",1.0
101682,262-12-4,262-12-4,[H]C1=C([H])C([H])=C2OC3=C([H])C([H])=C([H])C([H])=C3OC2=C1[H],DIBENZO-P-DIOXIN,Dibenzo-p-dioxin,oxanthrene,6308,DTXSID8020410,c1cccc2Oc3ccccc3Oc21,InChI=1S/C12H8O2/c1-2-6-10-9(5-1)13-11-7-3-4-8-12(11)14-10/h1-8H,NFBOHOGPQUYFRF-UHFFFAOYSA-N,?,,"SHIU,WY ET AL. (1988)",4.3