ChemID,source_casrn,CAS,SMILES,NAME,preferred_name,iupac,MPID,dsstox_substance_id,Canonical_QSARr,InChI_Code_QSARr,InChI Key_QSARr,Salt_Solvent,Salt_Solvent_ID,Kow Reference,LogP
103005,886-50-0,886-50-0,[H]N(C1=NC(N([H])C(C([H])([H])[H])(C([H])([H])[H])C([H])([H])[H])=NC(SC([H])([H])[H])=N1)C([H])([H])C([H])([H])[H],TERBUTRYN,Terbutryn,"N-tert-butyl-N'-ethyl-6-(methylsulfanyl)-1,3,5-triazine-2,4-diamine",7580,DTXSID3024318,CCNc1[n]c(NC(C)(C)C)[n]c([n]1)SC,"InChI=1S/C10H19N5S/c1-6-11-7-12-8(15-10(2,3)4)14-9(13-7)16-5/h6H2,1-5H3,(H2,11,12,13,14,15)",IROINLKCQGIITA-UHFFFAOYSA-N,?,,"HANSCH,C ET AL. (1995)",3.74
103007,890-38-0,NOCAS_862459,[H]OC1=NC([H])=NC2=C1N=C([H])N2C1([H])OC([H])(C([H])([H])O[H])C([H])(O[H])C1([H])[H],"INOSINE, 2'-DEOXY-",,,7582,DTXSID10862459,Oc1[n]c[n]c2c1[n]c[n]2C1CC(O)C(CO)O1,"InChI=1S/C10H12N4O4/c15-2-6-5(16)1-7(18-6)14-4-13-8-9(14)11-3-12-10(8)17/h3-7,15-16H,1-2H2,(H,11,12,17)",VGONTNSXDCQUGY-UHFFFAOYSA-N,?,,"FORD,H ET AL. (1991)",-1.71
103008,890-67-5,890-67-5,[H]C1=C(Cl)C(S(=O)(=O)N([H])[H])=C([H])C2=C1N([H])C([H])(C([H])([H])[H])N([H])S2(=O)=O,3-METHYLHYDROCHLOROTHIAZIDE,,,7583,DTXSID70875727,CC1NS(=O)(=O)c2cc(c(Cl)cc2N1)S(N)(=O)=O,"InChI=1S/C8H10ClN3O4S2/c1-4-11-6-2-5(9)7(17(10,13)14)3-8(6)18(15,16)12-4/h2-4,11-12H,1H3,(H2,10,13,14)",OLGOYXCALUVMCM-UHFFFAOYSA-N,?,,"HANSCH,C ET AL. (1995)",0.08
103009,891-60-1,NOCAS_862460,[H]C1=C(Cl)C(N([H])[H])=C([H])C([H])=C1C(=O)N([H])C([H])([H])C([H])([H])N(C([H])([H])C([H])([H])[H])C([H])([H])C([H])([H])[H],"BENZAMIDE, 4-AMINO-3-CHLORO-N-[2-(DIETHYLAMINO)E",,,7584,DTXSID20862460,CCN(CCNC(=O)c1ccc(N)c(Cl)c1)CC,"InChI=1S/C13H20ClN3O/c1-3-17(4-2)8-7-16-13(18)10-5-6-12(15)11(14)9-10/h5-6,9H,3-4,7-8,15H2,1-2H3,(H,16,18)",YEYAKZXEBSVURO-UHFFFAOYSA-N,?,,"VAN DAMME,M ET AL. (1984)",1.7
103012,919-86-8,919-86-8,[H]C([H])([H])OP(=O)(OC([H])([H])[H])SC([H])([H])C([H])([H])SC([H])([H])C([H])([H])[H],DEMETON-S-METHYL,Demeton-S-methyl,"S-[2-(ethylsulfanyl)ethyl] O,O-dimethyl phosphorothioate",7586,DTXSID5037521,CCSCCSP(=O)(OC)OC,"InChI=1S/C6H15O3PS2/c1-4-11-5-6-12-10(7,8-2)9-3/h4-6H2,1-3H3",WEBQKRLKWNIYKK-UHFFFAOYSA-N,?,,"HANSCH,C ET AL. (1995)",1.02
103013,920-66-1,920-66-1,[H]OC([H])(C(F)(F)F)C(F)(F)F,"1,1,1,3,3,3-HEXAFLUOROPROPAN-2-OL","1,1,1,3,3,3-Hexafluoro-2-propanol","1,1,1,3,3,3-hexafluoropropan-2-ol",7587,DTXSID1022134,OC(C(F)(F)F)C(F)(F)F,"InChI=1S/C3H2F6O/c4-2(5,6)1(10)3(7,8)9/h1,10H",BYEAHWXPCBROCE-UHFFFAOYSA-N,?,,POMONA (1987),1.66
103014,922-63-4,922-63-4,[H]C(=O)C(=C([H])[H])C([H])([H])C([H])([H])[H],2-ETHYLPROPENAL,2-Methylenebutanal,2-methylidenebutanal,7588,DTXSID1029205,CCC(=C)C=O,"InChI=1S/C5H8O/c1-3-5(2)4-6/h4H,2-3H2,1H3",GMLDCZYTIPCVMO-UHFFFAOYSA-N,?,,"HANSCH,C ET AL. (1995)",1.24
103016,923-99-9,923-99-9,[H]C([H])([H])C([H])([H])C([H])([H])OP(OC([H])([H])C([H])([H])C([H])([H])[H])OC([H])([H])C([H])([H])C([H])([H])[H],Tripropyl phosphite,Tripropyl phosphite,Tripropyl phosphite,7590,DTXSID80238960,CCCOP(OCCC)OCCC,"InChI=1S/C9H21O3P/c1-4-7-10-13(11-8-5-2)12-9-6-3/h4-9H2,1-3H3",QOPBTFMUVTXWFF-UHFFFAOYSA-N,?,,"HANSCH,C ET AL. (1995)",2.26
103017,924-16-3,924-16-3,[H]C([H])([H])C([H])([H])C([H])([H])C([H])([H])N(N=O)C([H])([H])C([H])([H])C([H])([H])C([H])([H])[H],N-NITROSODIBUTYLAMINE,N-Nitrosodibutylamine,N-butyl-N-nitrosobutan-1-amine,7591,DTXSID2021026,CCCCN(CCCC)N=O,"InChI=1S/C8H18N2O/c1-3-5-7-10(9-11)8-6-4-2/h3-8H2,1-2H3",YGJHZCLPZAZIHH-UHFFFAOYSA-N,?,,"HANSCH,C ET AL. (1995)",2.63
103018,924-46-9,924-46-9,[H]C([H])([H])N(N=O)C([H])([H])C([H])([H])C([H])([H])[H],N-NITROSOMETHYLPROPYLAMINE,N-Nitrosomethyl-N-propylamine,N-methyl-N-propylnitrous amide,7592,DTXSID90238991,CCCN(C)N=O,"InChI=1S/C4H10N2O/c1-3-4-6(2)5-7/h3-4H2,1-2H3",ITBDKUCVKYSWMF-UHFFFAOYSA-N,?,,"VERA,A ET AL. (1992)",0.56
103020,925-57-5,925-57-5,[H]OC([H])([H])C([H])([H])C([H])([H])C(=O)OC([H])([H])[H],METHYL-4-HYDROXYBUTYRATE,"Butanoic acid, 4-hydroxy-, methyl ester",Methyl 4-hydroxybutanoate,7594,DTXSID10239021,COC(=O)CCCO,"InChI=1S/C5H10O3/c1-8-5(7)3-2-4-6/h6H,2-4H2,1H3",JUYVXCGKMCYNBN-UHFFFAOYSA-N,?,,"HANSCH,C ET AL. (1995)",-0.06
103021,925-76-8,925-76-8,[H]C([H])=C([H])C(=O)N([H])C([H])([H])C([H])([H])N(C([H])([H])[H])C([H])([H])[H],"2-Propenamide, N- 2-(dimethylamino)ethyl -",N-(2-(Dimethylamino)ethyl)acrylamide,N-(2-dimethylaminoethyl)prop-2-enamide,7595,DTXSID70239022,CN(C)CCNC(=O)C=C,"InChI=1S/C7H14N2O/c1-4-7(10)8-5-6-9(2)3/h4H,1,5-6H2,2-3H3,(H,8,10)",WDQKICIMIPUDBL-UHFFFAOYSA-N,?,,"CHIARI,M ET AL. (1991)",-0.25
103022,927-62-8,927-62-8,[H]C([H])([H])N(C([H])([H])[H])C([H])([H])C([H])([H])C([H])([H])C([H])([H])[H],DIMETHYLBUTYLAMINE,"N,N-Dimethylbutylamine",C6H15N,7596,DTXSID8047472,CCCCN(C)C,"InChI=1S/C6H15N/c1-4-5-6-7(2)3/h4-6H2,1-3H3",DJEQZVQFEPKLOY-UHFFFAOYSA-N,?,,"HANSCH,C ET AL. (1995)",1.7
103024,928-45-0,928-45-0,[H]C([H])([H])C([H])([H])C([H])([H])C([H])([H])O[N+](=O)[O-],BUTYL NITRATE,Butyl nitrate,BUTYL NITRATE,7598,DTXSID70239143,CCCCO[N+]([O-])=O,"InChI=1S/C4H9NO3/c1-2-3-4-8-5(6)7/h2-4H2,1H3",QQHZPQUHCAKSOL-UHFFFAOYSA-N,?,,"HANSCH,C & LEO,AJ (1985)",2.15
103025,928-51-8,928-51-8,[H]OC([H])([H])C([H])([H])C([H])([H])C([H])([H])Cl,"1-BUTANOL, 4-CHLORO-","1-Butanol, 4-chloro-",4-Chlorobutan-1-ol,7599,DTXSID2061301,OCCCCCl,"InChI=1S/C4H9ClO/c5-3-1-2-4-6/h6H,1-4H2",HXHGULXINZUGJX-UHFFFAOYSA-N,?,,"HANSCH,C ET AL. (1995)",0.85
103026,929-17-9,929-17-9,[H]OC(=O)C([H])([H])C([H])([H])C([H])([H])C([H])([H])C([H])([H])C([H])([H])N([H])[H],7-Aminoheptanoic acid,omega-Aminoenantic acid,7-Aminoheptanoic acid,7600,DTXSID10239182,NCCCCCCC(O)=O,"InChI=1S/C7H15NO2/c8-6-4-2-1-3-5-7(9)10/h1-6,8H2,(H,9,10)",XDOLZJYETYVRKV-UHFFFAOYSA-N,?,,"TSAI,RS ET AL. (1991)",-3.03
103028,929-77-1,929-77-1,[H]C([H])([H])OC(=O)C([H])([H])C([H])([H])C([H])([H])C([H])([H])C([H])([H])C([H])([H])C([H])([H])C([H])([H])C([H])([H])C([H])([H])C([H])([H])C([H])([H])C([H])([H])C([H])([H])C([H])([H])C([H])([H])C([H])([H])C([H])([H])C([H])([H])C([H])([H])C([H])([H])[H],"Docosanoic acid, methyl ester",Methyl behenate,methyl docosanoate,7602,DTXSID6029206,CCCCCCCCCCCCCCCCCCCCCC(=O)OC,"InChI=1S/C23H46O2/c1-3-4-5-6-7-8-9-10-11-12-13-14-15-16-17-18-19-20-21-22-23(24)25-2/h3-22H2,1-2H3",QSQLTHHMFHEFIY-UHFFFAOYSA-N,?,,"KROP,HB ET AL. (1997)",10.2
103029,930-36-9,930-36-9,[H]C1=NN(C([H])([H])[H])C([H])=C1[H],1-METHYLPYRAZOLE,"1H-Pyrazole, 1-methyl-",1-methylpyrazole,7603,DTXSID40239231,C[n]1ccc[n]1,"InChI=1S/C4H6N2/c1-6-4-2-3-5-6/h2-4H,1H3",UQFQONCQIQEYPJ-UHFFFAOYSA-N,?,,"HANSCH,C ET AL. (1995)",0.23
103030,930-55-2,930-55-2,[H]C1([H])N(N=O)C([H])([H])C([H])([H])C1([H])[H],N-NITROSOPYRROLIDINE,N-Nitrosopyrrolidine,1-nitrosopyrrolidine,7604,DTXSID8021062,O=NN1CCCC1,InChI=1S/C4H8N2O/c7-5-6-3-1-2-4-6/h1-4H2,WNYADZVDBIBLJJ-UHFFFAOYSA-N,?,,"HANSCH,C ET AL. (1995)",-0.19
103033,931-63-5,931-63-5,[H]C1=NC(OC([H])([H])[H])=NC([H])=C1[H],"PYRIMIDINE, 2-METHOXY-","Pyrimidine, 2-methoxy-",2-Methoxypyrimidine,7606,DTXSID80239270,COc1[n]ccc[n]1,"InChI=1S/C5H6N2O/c1-8-5-6-3-2-4-7-5/h2-4H,1H3",YLZYSVYZMDJYOT-UHFFFAOYSA-N,?,,POMONA (1987),0.23
103034,932-17-2,932-17-2,[H]C([H])([H])C(=O)N1C(=O)C([H])([H])C([H])([H])C1([H])[H],"2-PYRROLIDINONE, 1-ACETYL-","2-Pyrrolidinone, 1-acetyl-",1-Acetylpyrrolidin-2-one,7607,DTXSID30239321,CC(=O)N1CCCC1=O,"InChI=1S/C6H9NO2/c1-5(8)7-4-2-3-6(7)9/h2-4H2,1H3",YLHUPYSUKYAIBW-UHFFFAOYSA-N,?,,SANGSTER (1994),-0.05
103035,932-83-2,932-83-2,[H]C1([H])N(N=O)C([H])([H])C([H])([H])C([H])([H])C([H])([H])C1([H])[H],N-NITROSOHEXAMETHYLENEIMINE,N-Nitrosohexamethyleneimine,1-nitrosoazepane,7608,DTXSID0021040,O=NN1CCCCCC1,InChI=1S/C6H12N2O/c9-7-8-5-3-1-2-4-6-8/h1-6H2,UZMVSVHUTOAPTD-UHFFFAOYSA-N,?,,"HANSCH,C ET AL. (1995)",0.92
103038,933-75-5,933-75-5,[H]OC1=C(Cl)C(Cl)=C([H])C([H])=C1Cl,"2,3,6-TRICHLOROPHENOL","2,3,6-Trichlorophenol",C6H3Cl3O,7611,DTXSID5026209,Oc1c(Cl)c(Cl)ccc1Cl,"InChI=1S/C6H3Cl3O/c7-3-1-2-4(8)6(10)5(3)9/h1-2,10H",XGCHAIDDPMFRLJ-UHFFFAOYSA-N,?,,"HANSCH,C ET AL. (1995)",3.77
103039,933-78-8,933-78-8,[H]OC1=C(Cl)C(Cl)=C([H])C(Cl)=C1[H],"2,3,5-TRICHLOROPHENOL","2,3,5-Trichlorophenol",C6H3Cl3O,7612,DTXSID0026208,Oc1cc(Cl)cc(Cl)c1Cl,"InChI=1S/C6H3Cl3O/c7-3-1-4(8)6(9)5(10)2-3/h1-2,10H",WWGQHTJIFOQAOC-UHFFFAOYSA-N,?,,"HANSCH,C ET AL. (1995)",3.84
103040,933-87-9,933-87-9,[H]C1=NC([N+](=O)[O-])=C(Br)N1C([H])([H])[H],5-BROMO-1-METHYL-4-NITRO-1H-IMIDAZOLE,MTR 1-80,5-bromo-1-methyl-4-nitroimidazole,7613,DTXSID40239377,C[n]1c[n]c(c1Br)[N+]([O-])=O,"InChI=1S/C4H4BrN3O2/c1-7-2-6-4(3(7)5)8(9)10/h2H,1H3",PQZGBZGIQGQAFD-UHFFFAOYSA-N,?,,"SUWINSKI,J ET AL. (1985)",0.36
103042,933-98-2,933-98-2,[H]C1=C([H])C(C([H])([H])[H])=C(C([H])([H])[H])C(C([H])([H])C([H])([H])[H])=C1[H],"1,2-DIMETHYL-3-ETHYLBENZENE",,,7615,DTXSID00865479,CCc1cccc(C)c1C,"InChI=1S/C10H14/c1-4-10-7-5-6-8(2)9(10)3/h5-7H,4H2,1-3H3",QUBBAXISAHIDNM-UHFFFAOYSA-N,?,,"SHERBLOM,PM & EGANHOUSE,RP (1988)",4.34
103043,934-32-7,934-32-7,[H]C1=C([H])C([H])=C2C(=C1[H])N=C(N([H])[H])N2[H],2-AMINOBENZIMIDAZOLE,2-Aminobenzimidazole,1H-benzimidazol-2-amine,7616,DTXSID1024465,Nc1[nH]c2ccccc2[n]1,"InChI=1S/C7H7N3/c8-7-9-5-3-1-2-4-6(5)10-7/h1-4H,(H3,8,9,10)",JWYUFVNJZUSCSM-UHFFFAOYSA-N,?,,"HANSCH,C ET AL. (1995)",0.91
103044,934-34-9,934-34-9,[H]OC1=NC2=C([H])C([H])=C([H])C([H])=C2S1,S-ORTHOPHENYLENETHIOCARBAMATE,2(3H)-Benzothiazolone,,7617,DTXSID6061315,Oc1[n]c2ccccc2[s]1,"InChI=1S/C7H5NOS/c9-7-8-5-3-1-2-4-6(5)10-7/h1-4H,(H,8,9)",YEDUAINPPJYDJZ-UHFFFAOYSA-N,?,,"HANSCH,C ET AL. (1995)",1.76
103046,934-80-5,934-80-5,[H]C1=C(C([H])([H])[H])C(C([H])([H])[H])=C([H])C(C([H])([H])C([H])([H])[H])=C1[H],"4-ETHYL-1,2-DIMETHYLBENZENE","1,2-Dimethyl-4-ethylbenzene","4-Ethyl-1,2-dimethylbenzene",7619,DTXSID6061317,CCc1cc(C)c(C)cc1,"InChI=1S/C10H14/c1-4-10-6-5-8(2)9(3)7-10/h5-7H,4H2,1-3H3",SBUYFICWQNHBCM-UHFFFAOYSA-N,?,,"SHERBLOM,PM & EGANHOUSE,RP (1988)",4.5
103047,934-87-2,934-87-2,[H]C1=C([H])C([H])=C(SC(=O)C([H])([H])[H])C([H])=C1[H],"THIACETIC ACID, S-PHENYL ESTER",Thiophenyl acetate,S-phenyl ethanethioate,7620,DTXSID00239419,CC(=O)Sc1ccccc1,"InChI=1S/C8H8OS/c1-7(9)10-8-5-3-2-4-6-8/h2-6H,1H3",WBISVCLTLBMTDS-UHFFFAOYSA-N,?,,"HANSCH,C ET AL. (1995)",2.23
103048,935-30-8,935-30-8,[H]N1C(=O)C([H])([H])C([H])([H])C([H])([H])C([H])([H])C([H])([H])C([H])([H])C1([H])[H],2-AZACYCLO-NONANONE,2-Azacyclononanone,azonan-2-one,7621,DTXSID60239450,O=C1CCCCCCCN1,"InChI=1S/C8H15NO/c10-8-6-4-2-1-3-5-7-9-8/h1-7H2,(H,9,10)",YDLSUFFXJYEVHW-UHFFFAOYSA-N,?,,"HANSCH,C ET AL. (1995)",0.67
103050,935-95-5,935-95-5,[H]OC1=C(Cl)C(Cl)=C([H])C(Cl)=C1Cl,"2,3,5,6-TETRACHLOROPHENOL","2,3,5,6-Tetrachlorophenol","2,3,5,6-tetrachlorophenol",7623,DTXSID2026101,Oc1c(Cl)c(Cl)cc(Cl)c1Cl,"InChI=1S/C6H2Cl4O/c7-2-1-3(8)5(10)6(11)4(2)9/h1,11H",KEWNKZNZRIAIAK-UHFFFAOYSA-N,?,,"HANSCH,C ET AL. (1995)",3.88
103051,936-02-7,936-02-7,[H]OC1=C([H])C([H])=C([H])C([H])=C1C(=O)N([H])N([H])[H],"BENZOYLHYDRAZINE, O-HYDROXY",Salicylic acid hydrazide,2-Hydroxybenzohydrazide,7624,DTXSID0061321,NNC(=O)c1ccccc1O,"InChI=1S/C7H8N2O2/c8-9-7(11)5-3-1-2-4-6(5)10/h1-4,10H,8H2,(H,9,11)",XSXYESVZDBAKKT-UHFFFAOYSA-N,?,,"HANSCH,C ET AL. (1995)",0.6
103052,936-05-0,936-05-0,[H]OC([H])([H])C1=C([H])N=C([N+](=O)[O-])N1C([H])([H])[H],1-ME-2-NO2-5-HYDROXYME IMIDAZOLE,,,7625,DTXSID30878799,C[n]1c(CO)c[n]c1[N+]([O-])=O,"InChI=1S/C5H7N3O3/c1-7-4(3-9)2-6-5(7)8(10)11/h2,9H,3H2,1H3",WXSSUDRHAJTESR-UHFFFAOYSA-N,?,,"HANSCH,C ET AL. (1995)",-0.35
103055,937-40-6,937-40-6,[H]C1=C([H])C([H])=C(C([H])([H])N(N=O)C([H])([H])[H])C([H])=C1[H],N-BENZYL-N-METHYLNITROSOAMINE,N-Nitrosomethylbenzylamine,N-methyl-N-nitroso-1-phenylmethanamine,7627,DTXSID3041081,CN(Cc1ccccc1)N=O,"InChI=1S/C8H10N2O/c1-10(9-11)7-8-5-3-2-4-6-8/h2-6H,7H2,1H3",NGXUJKBJBFLCAR-UHFFFAOYSA-N,?,,"SINGER,GM ET AL. (1986)",1.55
103056,937-41-7,937-41-7,[H]C([H])=C([H])C(=O)OC1=C([H])C([H])=C([H])C([H])=C1[H],PHENYLACRYLATE,Phenyl acrylate,phenyl prop-2-enoate,7628,DTXSID5061328,C=CC(=O)Oc1ccccc1,"InChI=1S/C9H8O2/c1-2-9(10)11-8-6-4-3-5-7-8/h2-7H,1H2",WRAQQYDMVSCOTE-UHFFFAOYSA-N,?,,BIOBYTE STARLIST (2009),1.94
103057,938-16-9,938-16-9,[H]C1=C([H])C([H])=C(C(=O)C(C([H])([H])[H])(C([H])([H])[H])C([H])([H])[H])C([H])=C1[H],"2,2-DIMETHYLPROPIOPHENONE",tert-Butyl phenyl ketone,"2,2-dimethyl-1-phenylpropan-1-one",7629,DTXSID1048209,CC(C)(C)C(=O)c1ccccc1,"InChI=1S/C11H14O/c1-11(2,3)10(12)9-7-5-4-6-8-9/h4-8H,1-3H3",OECPUBRNDKXFDX-UHFFFAOYSA-N,?,,"HANSCH,C ET AL. (1995)",3.0
103059,938-33-0,938-33-0,[H]C1=C([H])C([H])=C2C(=N1)C(OC([H])([H])[H])=C([H])C([H])=C2[H],8-METHOXYQUINOLINE,Methyl 8-quinolyl ether,8-Methoxyquinoline,7631,DTXSID00239656,COc1cccc2ccc[n]c21,"InChI=1S/C10H9NO/c1-12-9-6-2-4-8-5-3-7-11-10(8)9/h2-7H,1H3",ZLKGGEBOALGXJZ-UHFFFAOYSA-N,?,,"HANSCH,C ET AL. (1995)",1.84
103060,938-56-7,938-56-7,[H]OC([H])([H])C([H])([H])N1N=NC2=C([H])C([H])=C([H])C([H])=C21,1-(2-HYDROXYETHYL)BENZOTRIAZOLE,1H-Benzotriazole-1-ethanol,2-(benzotriazol-1-yl)ethanol,7632,DTXSID80239659,OCC[n]1[n][n]c2ccccc12,"InChI=1S/C8H9N3O/c12-6-5-11-8-4-2-1-3-7(8)9-10-11/h1-4,12H,5-6H2",VHEODZYQZLRPTF-UHFFFAOYSA-N,?,,"HANSCH,C ET AL. (1995)",0.5
103061,938-86-3,938-86-3,[H]C1=C(OC([H])([H])[H])C(Cl)=C(Cl)C(Cl)=C1Cl,"2,3,4,5-TETRACHLOROANISOLE","2,3,4,5-Tetrachloroanisole","1,2,3,4-Tetrachloro-5-methoxybenzene",7633,DTXSID90239660,COc1cc(Cl)c(Cl)c(Cl)c1Cl,"InChI=1S/C7H4Cl4O/c1-12-4-2-3(8)5(9)7(11)6(4)10/h2H,1H3",FUUHMSUPRUNWRQ-UHFFFAOYSA-N,?,,"OPPERHUIZEN,A & VOORS,PI (1987)",4.51
103063,939-05-9,939-05-9,[H]C1=C([H])C([H])=C(C2=C([H])C(=O)N([H])O2)C([H])=C1[H],3-OH-5-PHENYLISOXAZOLE,"3(2H)-Isoxazolone, 5-phenyl-","5-phenyl-1,2-oxazol-3-one",7635,DTXSID70239860,O=C1C=C(ON1)c1ccccc1,"InChI=1S/C9H7NO2/c11-9-6-8(12-10-9)7-4-2-1-3-5-7/h1-6H,(H,10,11)",AFVFIJAYAFTQRB-UHFFFAOYSA-N,?,,"HANSCH,C ET AL. (1995)",2.55
103064,939-23-1,939-23-1,[H]C1=NC([H])=C([H])C(C2=C([H])C([H])=C([H])C([H])=C2[H])=C1[H],4-PHENYLPYRIDINE,4-Phenylpyridine,4-phenylpyridine,7636,DTXSID5022140,c1cc(cc[n]1)-c1ccccc1,InChI=1S/C11H9N/c1-2-4-10(5-3-1)11-6-8-12-9-7-11/h1-9H,JVZRCNQLWOELDU-UHFFFAOYSA-N,?,,"HANSCH,C ET AL. (1995)",2.59
103065,939-27-5,939-27-5,[H]C1=C([H])C([H])=C2C([H])=C(C([H])([H])C([H])([H])[H])C([H])=C([H])C2=C1[H],2-ETHYLNAPHTHALENE,2-Ethylnaphthalene,2-Ethylnaphthalene,7637,DTXSID9061330,CCc1cc2ccccc2cc1,"InChI=1S/C12H12/c1-2-10-7-8-11-5-3-4-6-12(11)9-10/h3-9H,2H2,1H3",RJTJVVYSTUQWNI-UHFFFAOYSA-N,?,,"HANSCH,C ET AL. (1995)",4.38
103068,940-36-3,940-36-3,[H]C1=C([H])C(N([H])C(=O)OC([H])([H])[H])=C([H])C([H])=C1Cl,"CARBAMIC ACID, (4-CHLOROPHENYL)-, METHYL ESTER","Carbamic acid, (4-chlorophenyl)-, methyl ester",methyl N-(4-chlorophenyl)carbamate,7639,DTXSID50240191,COC(=O)Nc1ccc(Cl)cc1,"InChI=1S/C8H8ClNO2/c1-12-8(11)10-7-4-2-6(9)3-5-7/h2-5H,1H3,(H,10,11)",CRGWHGISCDFEJY-UHFFFAOYSA-N,?,,"TAKAHASHI,K ET AL. (1988)",2.55
103069,940-43-2,940-43-2,[H]C1=C([H])C([H])=C(C([H])([H])C([H])([H])C(=O)N([H])C([H])([H])[H])C([H])=C1[H],"BENZENEPROPANAMIDE, N-METHYL-",N-methyl-3-phenylpropanamide,C10H13NO,7640,DTXSID10392448,CNC(=O)CCc1ccccc1,"InChI=1S/C10H13NO/c1-11-10(12)8-7-9-5-3-2-4-6-9/h2-6H,7-8H2,1H3,(H,11,12)",RWGJVMFILBWTGJ-UHFFFAOYSA-N,?,,"RADZICKA,A & WOLFENDEN,R (1988)",1.17
103070,940-64-7,940-64-7,[H]OC(=O)C([H])([H])OC1=C([H])C([H])=C(C([H])([H])[H])C([H])=C1[H],P-METHYLPHENOXYACETIC ACID,(4-Methylphenoxy)acetic acid,2-(4-methylphenoxy)acetic acid,7641,DTXSID70240193,Cc1ccc(cc1)OCC(O)=O,"InChI=1S/C9H10O3/c1-7-2-4-8(5-3-7)12-6-9(10)11/h2-5H,6H2,1H3,(H,10,11)",SFTDDFBJWUWKMN-UHFFFAOYSA-N,?,,"HANSCH,C ET AL. (1995)",1.86
103072,942-24-5,942-24-5,[H]C1=C([H])C([H])=C2C(=C1[H])C(C(=O)OC([H])([H])[H])=C([H])N2[H],"1H-INDOLE-3-CARBOXYLIC ACID, METHYL ESTER",Methyl indole-3-carboxylate,C10H9NO2,7643,DTXSID10343334,COC(=O)c1c[nH]c2ccccc12,"InChI=1S/C10H9NO2/c1-13-10(12)8-6-11-9-5-3-2-4-7(8)9/h2-6,11H,1H3",QXAUTQFAWKKNLM-UHFFFAOYSA-N,?,,"YAMAGAMI,C ET AL. (1992)",2.57
103073,942-79-0,942-79-0,[H]C1=C([H])C([H])=C(OC(=O)N([H])C([H])([H])[H])C(C#N)=C1[H],N-METHYL-2-CYANOPHENYLCARBAMATE,Salicylonitrile methylcarbamate,(2-cyanophenyl) N-methylcarbamate,7644,DTXSID70240971,CNC(=O)Oc1ccccc1C#N,"InChI=1S/C9H8N2O2/c1-11-9(12)13-8-5-3-2-4-7(8)6-10/h2-5H,1H3,(H,11,12)",YKOXTDUYQAHYNG-UHFFFAOYSA-N,?,,"HANSCH,C ET AL. (1995)",0.86
103074,943-49-7,943-49-7,[H]C1=C([H])C(C#N)=C([H])C(OC(=O)N([H])C([H])([H])[H])=C1[H],N-METHYL-3-CYANOPHENYLCARBAMATE,"Benzonitrile, 3-(((methylamino)carbonyl)oxy)-",(3-cyanophenyl) N-methylcarbamate,7645,DTXSID00241411,CNC(=O)Oc1cc(ccc1)C#N,"InChI=1S/C9H8N2O2/c1-11-9(12)13-8-4-2-3-7(5-8)6-10/h2-5H,1H3,(H,11,12)",FRCGNBAZNFWJFA-UHFFFAOYSA-N,?,,"HANSCH,C ET AL. (1995)",0.97
103076,944-21-8,944-21-8,[H]C1=C([H])C([H])=C(SP(=O)(OC([H])([H])C([H])([H])[H])C([H])([H])C([H])([H])[H])C([H])=C1[H],"FONOPHOS, O-ANALOG",Fonofos oxygen analog,O-ethyl S-phenyl ethylphosphonothioate,7647,DTXSID0041989,CCP(=O)(OCC)Sc1ccccc1,"InChI=1S/C10H15O2PS/c1-3-12-13(11,4-2)14-10-8-6-5-7-9-10/h5-9H,3-4H2,1-2H3",KKVDUJRKQVHKBU-UHFFFAOYSA-N,?,,"HANSCH,C ET AL. (1995)",2.11
103077,944-22-9,944-22-9,[H]C1=C([H])C([H])=C(SP(=S)(OC([H])([H])C([H])([H])[H])C([H])([H])C([H])([H])[H])C([H])=C1[H],FONOPHOS,Fonofos,O-ethyl S-phenyl ethylphosphonodithioate,7648,DTXSID2024113,CCP(=S)(OCC)Sc1ccccc1,"InChI=1S/C10H15OPS2/c1-3-11-12(13,4-2)14-10-8-6-5-7-9-10/h5-9H,3-4H2,1-2H3",KVGLBTYUCJYMND-UHFFFAOYSA-N,?,,"HANSCH,C ET AL. (1995)",3.94
103078,944-61-6,944-61-6,[H]C([H])([H])OC1=C(Cl)C(Cl)=C(Cl)C(Cl)=C1OC([H])([H])[H],"Benzene, 1,2,3,4-tetrachloro-5,6-dimethoxy-","Benzene, 1,2,3,4-tetrachloro-5,6-dimethoxy-","1,2,3,4-Tetrachloro-5,6-dimethoxybenzene",7649,DTXSID7073939,COc1c(OC)c(Cl)c(Cl)c(Cl)c1Cl,InChI=1S/C8H6Cl4O2/c1-13-7-5(11)3(9)4(10)6(12)8(7)14-2/h1-2H3,NCYHCGGUQGDEQW-UHFFFAOYSA-N,?,,"LUN,R ET AL. (1995)",4.86
103080,945-51-7,945-51-7,[H]C1=C([H])C([H])=C(S(=O)C2=C([H])C([H])=C([H])C([H])=C2[H])C([H])=C1[H],DIPHENYL SULFOXIDE,Phenyl sulfoxide,diphenyl sulfoxide,7651,DTXSID0022141,O=S(c1ccccc1)c1ccccc1,InChI=1S/C12H10OS/c13-14(11-7-3-1-4-8-11)12-9-5-2-6-10-12/h1-10H,JJHHIJFTHRNPIK-UHFFFAOYSA-N,?,,"HANSCH,C ET AL. (1995)",2.06
103081,946-76-9,946-76-9,[H]C1=C([H])C(N([H])N=C(C#N)C#N)=C([H])C([H])=C1Cl,"PROPANEDINITRILE, [(4-CHLOROPHENYL)HYDRAZONO]-",Carbonylcyanide 4-chlorophenylhydrazone,2-[(4-chlorophenyl)hydrazinylidene]propanedinitrile,7652,DTXSID70241549,N#CC(C#N)=NNc1ccc(Cl)cc1,"InChI=1S/C9H5ClN4/c10-7-1-3-8(4-2-7)13-14-9(5-11)6-12/h1-4,13H",LLQAOIITXFNWED-UHFFFAOYSA-N,?,,"STURDIK,E ET AL. (1985)",3.39
103082,946-80-5,NOCAS_870813,[H]C1=C([H])C([H])=C(OC([H])([H])C2=C([H])C([H])=C([H])C([H])=C2[H])C([H])=C1[H],BENZYL PHENYL ETHER,,,7653,DTXSID70870813,C(Oc1ccccc1)c1ccccc1,"InChI=1S/C13H12O/c1-3-7-12(8-4-1)11-14-13-9-5-2-6-10-13/h1-10H,11H2",BOTNYLSAWDQNEX-UHFFFAOYSA-N,?,,"HANSCH,C ET AL. (1995)",3.79
103084,947-73-9,947-73-9,[H]C1=C([H])C([H])=C2C(=C1[H])C([H])=C(N([H])[H])C1=C([H])C([H])=C([H])C([H])=C21,9-PHENANTHRENAMINE,9-Aminophenanthrene,Phenanthren-9-amine,7655,DTXSID60241573,Nc1cc2ccccc2c2ccccc21,"InChI=1S/C14H11N/c15-14-9-10-5-1-2-6-11(10)12-7-3-4-8-13(12)14/h1-9H,15H2",KIHQWOBUUIPWAN-UHFFFAOYSA-N,?,,"DEBNATH,AK ET AL. (1992)",3.56
103085,947-84-2,NOCAS_870814,[H]OC(=O)C1=C(C2=C([H])C([H])=C([H])C([H])=C2[H])C([H])=C([H])C([H])=C1[H],"[1,1'-BIPHENYL]-2-CARBOXYLIC ACID",,,7656,DTXSID30870814,OC(=O)c1ccccc1-c1ccccc1,"InChI=1S/C13H10O2/c14-13(15)12-9-5-4-8-11(12)10-6-2-1-3-7-10/h1-9H,(H,14,15)",ILYSAKHOYBPSPC-UHFFFAOYSA-N,?,,POMONA (1987),2.89
103086,949-67-7,NOCAS_863317,[H]OC1=C([H])C([H])=C(C([H])([H])C([H])(C(=O)OC([H])([H])C([H])([H])[H])N([H])[H])C([H])=C1[H],"L-TYROSINE, ETHYL ESTER",,,7657,DTXSID80863317,CCOC(=O)C(N)Cc1ccc(O)cc1,"InChI=1S/C11H15NO3/c1-2-15-11(14)10(12)7-8-3-5-9(13)6-4-8/h3-6,10,13H,2,7,12H2,1H3",SBBWEQLNKVHYCX-UHFFFAOYSA-N,?,,"HUANG,CH ET AL. (1985)",0.72
103088,950-35-6,950-35-6,[H]C1=C([H])C([N+](=O)[O-])=C([H])C([H])=C1OP(=O)(OC([H])([H])[H])OC([H])([H])[H],METHYL PARAOXON,Methylparaoxon,dimethyl 4-nitrophenyl phosphate,7659,DTXSID5037571,COP(=O)(Oc1ccc(cc1)[N+]([O-])=O)OC,"InChI=1S/C8H10NO6P/c1-13-16(12,14-2)15-8-5-3-7(4-6-8)9(10)11/h3-6H,1-2H3",BAFQDKPJKOLXFZ-UHFFFAOYSA-N,?,,"HANSCH,C ET AL. (1995)",1.33