ChemID,source_casrn,CAS,SMILES,NAME,preferred_name,iupac,MPID,dsstox_substance_id,Canonical_QSARr,InChI_Code_QSARr,InChI Key_QSARr,Salt_Solvent,Salt_Solvent_ID,Kow Reference,LogP
101126,108-68-9,108-68-9,[H]OC1=C([H])C(C([H])([H])[H])=C([H])C(C([H])([H])[H])=C1[H],"3,5-DIMETHYLPHENOL","3,5-Dimethylphenol","3,5-dimethylphenol",5769,DTXSID1025148,Cc1cc(O)cc(C)c1,"InChI=1S/C8H10O/c1-6-3-7(2)5-8(9)4-6/h3-5,9H,1-2H3",TUAMRELNJMMDMT-UHFFFAOYSA-N,?,,"HANSCH,C ET AL. (1995)",2.35
101127,108-70-3,108-70-3,[H]C1=C(Cl)C([H])=C(Cl)C([H])=C1Cl,"1,3,5-TRICHLOROBENZENE","1,3,5-Trichlorobenzene",C6H3Cl3,5770,DTXSID8026195,Clc1cc(Cl)cc(Cl)c1,InChI=1S/C6H3Cl3/c7-4-1-5(8)3-6(9)2-4/h1-3H,XKEFYDZQGKAQCN-UHFFFAOYSA-N,?,,"HANSCH,C ET AL. (1995)",4.19
101129,108-75-8,108-75-8,[H]C1=C(C([H])([H])[H])N=C(C([H])([H])[H])C([H])=C1C([H])([H])[H],"2,4,6-COLLIDINE","2,4,6-Trimethylpyridine","2,4,6-trimethylpyridine",5772,DTXSID1051561,Cc1cc(C)[n]c(C)c1,"InChI=1S/C8H11N/c1-6-4-7(2)9-8(3)5-6/h4-5H,1-3H3",BWZVCCNYKMEVEX-UHFFFAOYSA-N,?,,"HANSCH,C ET AL. (1995)",1.88
101130,108-78-1,108-78-1,[H]N([H])C1=NC(N([H])[H])=NC(N([H])[H])=N1,MELAMINE,Melamine,"1,3,5-triazine-2,4,6-triamine",5773,DTXSID6020802,Nc1[n]c(N)[n]c(N)[n]1,"InChI=1S/C3H6N6/c4-1-7-2(5)9-3(6)8-1/h(H6,4,5,6,7,8,9)",JDSHMPZPIAZGSV-UHFFFAOYSA-N,?,,"HANSCH,C ET AL. (1995)",-1.37
101131,108-85-0,108-85-0,[H]C1([H])C([H])([H])C([H])([H])C([H])(Br)C([H])([H])C1([H])[H],BROMOCYCLOHEXANE,Bromocyclohexane,bromocyclohexane,5774,DTXSID1044148,BrC1CCCCC1,"InChI=1S/C6H11Br/c7-6-4-2-1-3-5-6/h6H,1-5H2",AQNQQHJNRPDOQV-UHFFFAOYSA-N,?,,"HANSCH,C ET AL. (1995)",3.2
101133,108-87-2,108-87-2,[H]C([H])([H])C1([H])C([H])([H])C([H])([H])C([H])([H])C([H])([H])C1([H])[H],1-METHYLCYCLOHEXANE,Methylcyclohexane,methylcyclohexane,5776,DTXSID0047749,CC1CCCCC1,"InChI=1S/C7H14/c1-7-5-3-2-4-6-7/h7H,2-6H2,1H3",UAEPNZWRGJTJPN-UHFFFAOYSA-N,?,,"HANSCH,C ET AL. (1995)",3.61
101134,108-88-3,108-88-3,[H]C1=C([H])C([H])=C(C([H])([H])[H])C([H])=C1[H],TOLUENE,Toluene,methylbenzene,5777,DTXSID7021360,Cc1ccccc1,"InChI=1S/C7H8/c1-7-5-3-2-4-6-7/h2-6H,1H3",YXFVVABEGXRONW-UHFFFAOYSA-N,?,,"HANSCH,C ET AL. (1995)",2.73
101135,108-89-4,108-89-4,[H]C1=NC([H])=C([H])C(C([H])([H])[H])=C1[H],4-METHYLPYRIDINE,4-Methylpyridine,4-methylpyridine,5778,DTXSID4021892,Cc1cc[n]cc1,"InChI=1S/C6H7N/c1-6-2-4-7-5-3-6/h2-5H,1H3",FKNQCJSGGFJEIZ-UHFFFAOYSA-N,?,,"HANSCH,C ET AL. (1995)",1.22
101137,108-91-8,108-91-8,[H]N([H])C1([H])C([H])([H])C([H])([H])C([H])([H])C([H])([H])C1([H])[H],CYCLOHEXANAMINE,Cyclohexylamine,cyclohexanamine,5780,DTXSID1023996,NC1CCCCC1,"InChI=1S/C6H13N/c7-6-4-2-1-3-5-6/h6H,1-5,7H2",PAFZNILMFXTMIY-UHFFFAOYSA-N,?,,"HANSCH,C ET AL. (1995)",1.49
101138,108-93-0,108-93-0,[H]OC1([H])C([H])([H])C([H])([H])C([H])([H])C([H])([H])C1([H])[H],CYCLOHEXANOL,Cyclohexanol,cyclohexanol,5781,DTXSID4021894,OC1CCCCC1,"InChI=1S/C6H12O/c7-6-4-2-1-3-5-6/h6-7H,1-5H2",HPXRVTGHNJAIIH-UHFFFAOYSA-N,?,,"HANSCH,C ET AL. (1995)",1.23
101139,108-94-1,108-94-1,[H]C1([H])C(=O)C([H])([H])C([H])([H])C([H])([H])C1([H])[H],CYCLOHEXANONE,Cyclohexanone,cyclohexanone,5782,DTXSID6020359,O=C1CCCCC1,InChI=1S/C6H10O/c7-6-4-2-1-3-5-6/h1-5H2,JHIVVAPYMSGYDF-UHFFFAOYSA-N,?,,"HANSCH,C ET AL. (1995)",0.81
101141,108-98-5,108-98-5,[H]SC1=C([H])C([H])=C([H])C([H])=C1[H],THIOPHENOL,Benzenethiol,benzenethiol,5784,DTXSID7026811,Sc1ccccc1,"InChI=1S/C6H6S/c7-6-4-2-1-3-5-6/h1-5,7H",RMVRSNDYEFQCLF-UHFFFAOYSA-N,?,,"HANSCH,C ET AL. (1995)",2.52
101142,108-99-6,108-99-6,[H]C1=NC([H])=C(C([H])([H])[H])C([H])=C1[H],3-METHYLPYRIDINE,3-Methylpyridine,3-methylpyridine,5785,DTXSID9021897,Cc1c[n]ccc1,"InChI=1S/C6H7N/c1-6-3-2-4-7-5-6/h2-5H,1H3",ITQTTZVARXURQS-UHFFFAOYSA-N,?,,"HANSCH,C ET AL. (1995)",1.2
101143,109-00-2,109-00-2,[H]OC1=C([H])C([H])=C([H])N=C1[H],3-HYDROXYPYRIDINE,3-Pyridinol,pyridin-3-ol,5786,DTXSID1051563,Oc1c[n]ccc1,"InChI=1S/C5H5NO/c7-5-2-1-3-6-4-5/h1-4,7H",GRFNBEZIAWKNCO-UHFFFAOYSA-N,?,,"HANSCH,C ET AL. (1995)",0.48
101145,109-04-6,109-04-6,[H]C1=C([H])C([H])=C([H])C(Br)=N1,2-BROMOPYRIDINE,2-Bromopyridine,2-bromopyridine,5788,DTXSID6051564,Brc1cccc[n]1,InChI=1S/C5H4BrN/c6-5-3-1-2-4-7-5/h1-4H,IMRWILPUOVGIMU-UHFFFAOYSA-N,?,,"HANSCH,C ET AL. (1995)",1.42
101146,109-06-8,109-06-8,[H]C1=NC(C([H])([H])[H])=C([H])C([H])=C1[H],2-METHYLPYRIDINE,2-Methylpyridine,2-methylpyridine,5789,DTXSID9021899,Cc1cccc[n]1,"InChI=1S/C6H7N/c1-6-4-2-3-5-7-6/h2-5H,1H3",BSKHPKMHTQYZBB-UHFFFAOYSA-N,?,,"HANSCH,C ET AL. (1995)",1.11
101147,109-08-0,109-08-0,[H]C1=NC([H])=C(C([H])([H])[H])N=C1[H],2-METHYLPYRAZINE,2-Methylpyrazine,2-methylpyrazine,5790,DTXSID4047620,Cc1c[n]cc[n]1,"InChI=1S/C5H6N2/c1-5-4-6-2-3-7-5/h2-4H,1H3",CAWHJQAVHZEVTJ-UHFFFAOYSA-N,?,,"HANSCH,C ET AL. (1995)",0.21
101149,109-10-4,142-08-5,[H]C1=C([H])C([H])=C([H])N([H])C1=O,A-PYRIDONE,2-Pyridone,pyridin-2(1H)-one,5792,DTXSID2051716,O=C1C=CC=CN1,"InChI=1S/C5H5NO/c7-5-3-1-2-4-6-5/h1-4H,(H,6,7)",UBQKCCHYAOITMY-UHFFFAOYSA-N,?,,"HANSCH,C ET AL. (1995)",-0.58
101150,109-16-0,109-16-0,[H]C([H])=C(C(=O)OC([H])([H])C([H])([H])OC([H])([H])C([H])([H])OC([H])([H])C([H])([H])OC(=O)C(=C([H])[H])C([H])([H])[H])C([H])([H])[H],TRIETHYLENEGLYCOL DIMETHACRYLATE,Triethylene glycol dimethacrylate,"ethane-1,2-diylbis(oxyethane-2,1-diyl) bis(2-methylprop-2-enoate)",5793,DTXSID3029607,CC(=C)C(=O)OCCOCCOCCOC(=O)C(C)=C,"InChI=1S/C14H22O6/c1-11(2)13(15)19-9-7-17-5-6-18-8-10-20-14(16)12(3)4/h1,3,5-10H2,2,4H3",HWSSEYVMGDIFMH-UHFFFAOYSA-N,?,,SANGSTER (1993),1.88
101151,109-46-6,109-46-6,[H]N(C(=S)N([H])C([H])([H])C([H])([H])C([H])([H])C([H])([H])[H])C([H])([H])C([H])([H])C([H])([H])C([H])([H])[H],"N,N-DIBUTYLTHIOUREA","N,N'-Dibutylthiourea","1,3-dibutylthiourea",5794,DTXSID8042187,CCCCNC(=S)NCCCC,"InChI=1S/C9H20N2S/c1-3-5-7-10-9(12)11-8-6-4-2/h3-8H2,1-2H3,(H2,10,11,12)",KFFQABQEJATQAT-UHFFFAOYSA-N,?,,"GOVERS,H ET AL. (1986)",2.75
101153,109-52-4,109-52-4,[H]OC(=O)C([H])([H])C([H])([H])C([H])([H])C([H])([H])[H],PENTANOIC ACID,Pentanoic acid,pentanoic acid,5796,DTXSID7021655,CCCCC(O)=O,"InChI=1S/C5H10O2/c1-2-3-4-5(6)7/h2-4H2,1H3,(H,6,7)",NQPDZGIKBAWPEJ-UHFFFAOYSA-N,?,,"HANSCH,C ET AL. (1995)",1.39
101154,109-59-1,109-59-1,[H]OC([H])([H])C([H])([H])OC([H])(C([H])([H])[H])C([H])([H])[H],2-Isopropoxyethanol,2-Isopropoxyethanol,C5H12O2,5797,DTXSID4047466,CC(C)OCCO,"InChI=1S/C5H12O2/c1-5(2)7-4-3-6/h5-6H,3-4H2,1-2H3",HCGFUIQPSOCUHI-UHFFFAOYSA-N,?,,"HANSCH,C ET AL. (1995)",0.05
101155,109-60-4,109-60-4,[H]C([H])([H])C(=O)OC([H])([H])C([H])([H])C([H])([H])[H],N-PROPYL ACETATE,Propyl acetate,propyl acetate,5798,DTXSID6021901,CCCOC(C)=O,"InChI=1S/C5H10O2/c1-3-4-7-5(2)6/h3-4H2,1-2H3",YKYONYBAUNKHLG-UHFFFAOYSA-N,?,,"HANSCH,C ET AL. (1995)",1.24
101157,109-65-9,109-65-9,[H]C([H])([H])C([H])([H])C([H])([H])C([H])([H])Br,1-BROMOBUTANE,1-Bromobutane,1-bromobutane,5800,DTXSID6021903,CCCCBr,"InChI=1S/C4H9Br/c1-2-3-4-5/h2-4H2,1H3",MPPPKRYCTPRNTB-UHFFFAOYSA-N,?,,"HANSCH,C ET AL. (1995)",2.75
101158,109-66-0,109-66-0,[H]C([H])([H])C([H])([H])C([H])([H])C([H])([H])C([H])([H])[H],N-PENTANE,Pentane,C5H12,5801,DTXSID2025846,CCCCC,"InChI=1S/C5H12/c1-3-5-4-2/h3-5H2,1-2H3",OFBQJSOFQDEBGM-UHFFFAOYSA-N,?,,"HANSCH,C ET AL. (1995)",3.39
101159,109-69-3,109-69-3,[H]C([H])([H])C([H])([H])C([H])([H])C([H])([H])Cl,1-CHLOROBUTANE,1-Chlorobutane,1-chlorobutane,5802,DTXSID8020206,CCCCCl,"InChI=1S/C4H9Cl/c1-2-3-4-5/h2-4H2,1H3",VFWCMGCRMGJXDK-UHFFFAOYSA-N,?,,"HANSCH,C ET AL. (1995)",2.64
101161,109-73-9,109-73-9,[H]N([H])C([H])([H])C([H])([H])C([H])([H])C([H])([H])[H],N-BUTYLAMINE,Butylamine,butan-1-amine,5804,DTXSID1021904,CCCCN,"InChI=1S/C4H11N/c1-2-3-4-5/h2-5H2,1H3",HQABUPZFAYXKJW-UHFFFAOYSA-N,?,,"HANSCH,C ET AL. (1995)",0.97
101162,109-74-0,109-74-0,[H]C([H])([H])C([H])([H])C([H])([H])C#N,BUTYRONITRILE,Butanenitrile,butanenitrile,5805,DTXSID1026823,CCCC#N,"InChI=1S/C4H7N/c1-2-3-4-5/h2-3H2,1H3",KVNRLNFWIYMESJ-UHFFFAOYSA-N,?,,"TANII,H & HASHIMOTO,K (1984)",0.53
101163,109-75-1,109-75-1,[H]C([H])=C([H])C([H])([H])C#N,3-BUTENENITRILE,Allyl cyanide,but-3-enenitrile,5806,DTXSID6021905,C=CCC#N,"InChI=1S/C4H5N/c1-2-3-4-5/h2H,1,3H2",SJNALLRHIVGIBI-UHFFFAOYSA-N,?,,"TANII,H & HASHIMOTO,K (1984)",0.4
101165,109-77-3,109-77-3,[H]C([H])(C#N)C#N,MALONONITRILE,Propanedinitrile,propanedinitrile,5808,DTXSID6021907,N#CCC#N,InChI=1S/C3H2N2/c4-2-1-3-5/h1H2,CUONGYYJJVDODC-UHFFFAOYSA-N,?,,"TANII,H & HASHIMOTO,K (1985)",-0.6
101166,109-78-4,109-78-4,[H]OC([H])([H])C([H])([H])C#N,ETHYLENE CYANOHYDRIN,3-Hydroxypropanenitrile,3-hydroxypropanenitrile,5809,DTXSID1025433,N#CCCO,"InChI=1S/C3H5NO/c4-2-1-3-5/h5H,1,3H2",WSGYTJNNHPZFKR-UHFFFAOYSA-N,?,,SANGSTER (1994),-0.94
101167,109-79-5,109-79-5,[H]SC([H])([H])C([H])([H])C([H])([H])C([H])([H])[H],BUTANETHIOL,1-Butanethiol,butane-1-thiol,5810,DTXSID6026824,CCCCS,"InChI=1S/C4H10S/c1-2-3-4-5/h5H,2-4H2,1H3",WQAQPCDUOCURKW-UHFFFAOYSA-N,?,,"HANSCH,C ET AL. (1995)",2.28
101169,109-86-4,109-86-4,[H]OC([H])([H])C([H])([H])OC([H])([H])[H],2-METHOXYETHANOL,2-Methoxyethanol,2-methoxyethanol,5812,DTXSID5024182,COCCO,"InChI=1S/C3H8O2/c1-5-3-2-4/h4H,2-3H2,1H3",XNWFRZJHXBZDAG-UHFFFAOYSA-N,?,,"HANSCH,C ET AL. (1995)",-0.77
101170,109-87-5,109-87-5,[H]C([H])([H])OC([H])([H])OC([H])([H])[H],DIMETHOXYMETHANE,Dimethoxymethane,dimethoxymethane,5813,DTXSID1025564,COCOC,"InChI=1S/C3H8O2/c1-4-3-5-2/h3H2,1-2H3",NKDDWNXOKDWJAK-UHFFFAOYSA-N,?,,"HANSCH,C ET AL. (1995)",0.0
101171,109-89-7,109-89-7,[H]N(C([H])([H])C([H])([H])[H])C([H])([H])C([H])([H])[H],DIETHYLAMINE,Diethylamine,N-ethylethanamine,5814,DTXSID6021909,CCNCC,"InChI=1S/C4H11N/c1-3-5-4-2/h5H,3-4H2,1-2H3",HPNMFZURTQLUMO-UHFFFAOYSA-N,?,,"HANSCH,C ET AL. (1995)",0.58
101173,109-94-4,109-94-4,[H]C(=O)OC([H])([H])C([H])([H])[H],ETHYL FORMATE,Ethyl formate,ethyl formate,5816,DTXSID6040117,CCOC=O,"InChI=1S/C3H6O2/c1-2-5-3-4/h3H,2H2,1H3",WBJINCZRORDGAQ-UHFFFAOYSA-N,?,,"HANSCH,C ET AL. (1995)",0.23
101174,109-97-7,109-97-7,[H]C1=C([H])N([H])C([H])=C1[H],PYRROLE,Pyrrole,1H-pyrrole,5817,DTXSID5021910,c1ccc[nH]1,InChI=1S/C4H5N/c1-2-4-5-3-1/h1-5H,KAESVJOAVNADME-UHFFFAOYSA-N,?,,"HANSCH,C ET AL. (1995)",0.75
101175,109-99-9,109-99-9,[H]C1([H])OC([H])([H])C([H])([H])C1([H])[H],TETRAHYDROFURAN,Tetrahydrofuran,tetrahydrofuran,5818,DTXSID1021328,C1CCCO1,InChI=1S/C4H8O/c1-2-4-5-3-1/h1-4H2,WYURNTSHIVDZCO-UHFFFAOYSA-N,?,,"HANSCH,C ET AL. (1995)",0.46
101177,110-02-1,110-02-1,[H]C1=C([H])C([H])=C([H])S1,THIOPHENE,Thiophene,thiophene,5820,DTXSID8026145,c1ccc[s]1,InChI=1S/C4H4S/c1-2-4-5-3-1/h1-4H,YTPLMLYBLZKORZ-UHFFFAOYSA-N,?,,"HANSCH,C ET AL. (1995)",1.81
101178,110-12-3,110-12-3,[H]C([H])([H])C(=O)C([H])([H])C([H])([H])C([H])(C([H])([H])[H])C([H])([H])[H],5-METHYL-2-HEXANONE,5-Methyl-2-hexanone,5-methylhexan-2-one,5821,DTXSID5021914,CC(C)CCC(C)=O,"InChI=1S/C7H14O/c1-6(2)4-5-7(3)8/h6H,4-5H2,1-3H3",FFWSICBKRCICMR-UHFFFAOYSA-N,?,,"TANII,H & HASHIMOTO,K (1986)",1.88
101179,110-13-4,110-13-4,[H]C([H])([H])C(=O)C([H])([H])C([H])([H])C(=O)C([H])([H])[H],"2,5-HEXANEDIONE","2,5-Hexanedione","hexane-2,5-dione",5822,DTXSID8030138,CC(=O)CCC(C)=O,"InChI=1S/C6H10O2/c1-5(7)3-4-6(2)8/h3-4H2,1-2H3",OJVAMHKKJGICOG-UHFFFAOYSA-N,?,,"HANSCH,C ET AL. (1995)",-0.27
101181,110-16-7|110-17-8,110-16-7|110-17-8,[H]OC(=O)/C([H])=C(\[H])C(=O)O[H],"MALEIC ACID, FUMARIC ACID",Maleic acid,(2Z)-but-2-enedioic acid,5824|5825,DTXSID8021517|DTXSID3021518,OC(=O)C=CC(O)=O,"InChI=1S/C4H4O4/c5-3(6)1-2-4(7)8/h1-2H,(H,5,6)(H,7,8)/b2-1+",VZCYOOQTPOCHFL-OWOJBTEDSA-N,?,,SANGSTER (1994),-0.48
101183,110-18-9,110-18-9,[H]C([H])([H])N(C([H])([H])[H])C([H])([H])C([H])([H])N(C([H])([H])[H])C([H])([H])[H],"N,N,N',N'-TETRAME ETHYLENEDIAMINE","N,N,N',N'-Tetramethylethylenediamine","N,N,N',N'-tetramethylethane-1,2-diamine",5826,DTXSID5026122,CN(C)CCN(C)C,"InChI=1S/C6H16N2/c1-7(2)5-6-8(3)4/h5-6H2,1-4H3",KWYHDKDOAIKMQN-UHFFFAOYSA-N,?,,"HANSCH,C ET AL. (1995)",0.3
101184,110-19-0,110-19-0,[H]C([H])([H])C(=O)OC([H])([H])C([H])(C([H])([H])[H])C([H])([H])[H],SEC-BUTYLACETATE,Isobutyl acetate,2-methylpropyl acetate,5827,DTXSID5026837,CC(C)COC(C)=O,"InChI=1S/C6H12O2/c1-5(2)4-8-6(3)7/h5H,4H2,1-3H3",GJRQTCIYDGXPES-UHFFFAOYSA-N,?,,"HANSCH,C ET AL. (1995)",1.78
101186,110-43-0,110-43-0,[H]C([H])([H])C(=O)C([H])([H])C([H])([H])C([H])([H])C([H])([H])C([H])([H])[H],2-HEPTANONE,2-Heptanone,heptan-2-one,5829,DTXSID5021916,CCCCCC(C)=O,"InChI=1S/C7H14O/c1-3-4-5-6-7(2)8/h3-6H2,1-2H3",CATSNJVOTSVZJV-UHFFFAOYSA-N,?,,"HANSCH,C ET AL. (1995)",1.98
101187,110-44-1,110-44-1,[H]OC(=O)/C([H])=C([H])/C([H])=C(\[H])C([H])([H])[H],SORBIC ACID,Sorbic acid,"(2E,4E)-hexa-2,4-dienoic acid",5830,DTXSID3021277,CC=CC=CC(O)=O,"InChI=1S/C6H8O2/c1-2-3-4-5-6(7)8/h2-5H,1H3,(H,7,8)/b3-2+,5-4+",WSWCOQWTEOXDQX-MQQKCMAXSA-N,?,,"HANSCH,C ET AL. (1995)",1.33
101188,110-53-2,110-53-2,[H]C([H])([H])C([H])([H])C([H])([H])C([H])([H])C([H])([H])Br,1-BROMOPENTANE,1-Bromopentane,1-bromopentane,5831,DTXSID3049203,CCCCCBr,"InChI=1S/C5H11Br/c1-2-3-4-5-6/h2-5H2,1H3",YZWKKMVJZFACSU-UHFFFAOYSA-N,?,,"HANSCH,C ET AL. (1995)",3.37
101190,110-58-7,110-58-7,[H]N([H])C([H])([H])C([H])([H])C([H])([H])C([H])([H])C([H])([H])[H],N-PENTYLAMINE,Pentan-1-amine,pentan-1-amine,5833,DTXSID0021919,CCCCCN,"InChI=1S/C5H13N/c1-2-3-4-5-6/h2-6H2,1H3",DPBLXKKOBLCELK-UHFFFAOYSA-N,?,,"HANSCH,C ET AL. (1995)",1.49
101191,110-59-8,110-59-8,[H]C([H])([H])C([H])([H])C([H])([H])C([H])([H])C#N,VALERONITRILE,Valeronitrile,pentanenitrile,5834,DTXSID3026275,CCCCC#N,"InChI=1S/C5H9N/c1-2-3-4-5-6/h2-4H2,1H3",RFFFKMOABOFIDF-UHFFFAOYSA-N,?,,"HANSCH,C ET AL. (1995)",1.12
101192,110-60-1,110-60-1,[H]N([H])C([H])([H])C([H])([H])C([H])([H])C([H])([H])N([H])[H],"1,4-BUTANEDIAMINE",Putrescine,"butane-1,4-diamine",5835,DTXSID4041107,NCCCCN,InChI=1S/C4H12N2/c5-3-1-2-4-6/h1-6H2,KIDHWZJUCRJVML-UHFFFAOYSA-N,?,,SANGSTER (1994),-0.7
101194,110-63-4,110-63-4,[H]OC([H])([H])C([H])([H])C([H])([H])C([H])([H])O[H],"1,4-BUTANEDIOL","1,4-Butanediol","butane-1,4-diol",5837,DTXSID2024666,OCCCCO,"InChI=1S/C4H10O2/c5-3-1-2-4-6/h5-6H,1-4H2",WERYXYBDKMZEQL-UHFFFAOYSA-N,?,,"HANSCH,C ET AL. (1995)",-0.83
101195,110-64-5,110-64-5,[H]OC([H])([H])/C([H])=C(\[H])C([H])([H])O[H],"2-BUTENE-1,4-DIOL","2-Butene-1,4-diol",C4H8O2,5838,DTXSID9026849,OCC=CCO,"InChI=1S/C4H8O2/c5-3-1-2-4-6/h1-2,5-6H,3-4H2/b2-1+",ORTVZLZNOYNASJ-OWOJBTEDSA-N,?,,"HANSCH,C ET AL. (1995)",-0.81
101196,110-68-9,110-68-9,[H]N(C([H])([H])[H])C([H])([H])C([H])([H])C([H])([H])C([H])([H])[H],METHYLBUTYLAMINE,"1-Butanamine, N-methyl-",N-methylbutan-1-amine,5839,DTXSID9059389,CCCCNC,"InChI=1S/C5H13N/c1-3-4-5-6-2/h6H,3-5H2,1-2H3",QCOGKXLOEWLIDC-UHFFFAOYSA-N,?,,"HANSCH,C ET AL. (1995)",1.33
101198,110-71-4,110-71-4,[H]C([H])([H])OC([H])([H])C([H])([H])OC([H])([H])[H],ETHYLENE GLYCOL DIMETHYL ETHER,Ethylene glycol dimethyl ether,"1,2-dimethoxyethane",5841,DTXSID0025286,COCCOC,"InChI=1S/C4H10O2/c1-5-3-4-6-2/h3-4H2,1-2H3",XTHFKEDIFFGKHM-UHFFFAOYSA-N,?,,"HANSCH,C ET AL. (1995)",-0.21
101199,110-74-7,110-74-7,[H]C(=O)OC([H])([H])C([H])([H])C([H])([H])[H],PROPYL FORMATE,"Formic acid, propyl ester",PROPYL FORMATE,5842,DTXSID3059391,CCCOC=O,"InChI=1S/C4H8O2/c1-2-3-6-4-5/h4H,2-3H2,1H3",KFNNIILCVOLYIR-UHFFFAOYSA-N,?,,"HANSCH,C ET AL. (1995)",0.83
101200,110-80-5,110-80-5,[H]OC([H])([H])C([H])([H])OC([H])([H])C([H])([H])[H],2-Ethoxyethanol,2-Ethoxyethanol,2-ethoxyethanol,5843,DTXSID7024087,CCOCCO,"InChI=1S/C4H10O2/c1-2-6-4-3-5/h5H,2-4H2,1H3",ZNQVEEAIQZEUHB-UHFFFAOYSA-N,?,,"HANSCH,C ET AL. (1995)",-0.32
101202,110-83-8,110-83-8,[H]C1=C([H])C([H])([H])C([H])([H])C([H])([H])C1([H])[H],CYCLOHEXENE,Cyclohexene,cyclohexene,5845,DTXSID9038717,C1CCCC=C1,"InChI=1S/C6H10/c1-2-4-6-5-3-1/h1-2H,3-6H2",HGCIXCUEYOPUTN-UHFFFAOYSA-N,?,,"HANSCH,C ET AL. (1995)",2.86
101203,110-85-0,110-85-0,[H]N1C([H])([H])C([H])([H])N([H])C([H])([H])C1([H])[H],PIPERAZINE,Piperazine,piperazine,5846,DTXSID1021164,C1CNCCN1,"InChI=1S/C4H10N2/c1-2-6-4-3-5-1/h5-6H,1-4H2",GLUUGHFHXGJENI-UHFFFAOYSA-N,?,,"HANSCH,C ET AL. (1995)",-1.5
101204,110-86-1,110-86-1,[H]C1=NC([H])=C([H])C([H])=C1[H],PYRIDINE,Pyridine,pyridine,5847,DTXSID9021924,c1cccc[n]1,InChI=1S/C5H5N/c1-2-4-6-5-3-1/h1-5H,JUJWROOIHBZHMG-UHFFFAOYSA-N,?,,"HANSCH,C ET AL. (1995)",0.65
101206,110-88-3,110-88-3,[H]C1([H])OC([H])([H])OC([H])([H])O1,"1,3,5-TRIOXANE","1,3,5-Trioxane","1,3,5-trioxane",5849,DTXSID4021925,C1OCOCO1,InChI=1S/C3H6O3/c1-4-2-6-3-5-1/h1-3H2,BGJSXRVXTHVRSN-UHFFFAOYSA-N,?,,"HANSCH,C ET AL. (1995)",-0.43
101207,110-89-4,110-89-4,[H]N1C([H])([H])C([H])([H])C([H])([H])C([H])([H])C1([H])[H],PIPERIDINE,Piperidine,piperidine,5850,DTXSID6021165,C1CCCCN1,"InChI=1S/C5H11N/c1-2-4-6-5-3-1/h6H,1-5H2",NQRYJNQNLNOLGT-UHFFFAOYSA-N,?,,"HANSCH,C ET AL. (1995)",0.84
101208,110-91-8,110-91-8,[H]N1C([H])([H])C([H])([H])OC([H])([H])C1([H])[H],MORPHOLINE,Morpholine,morpholine,5851,DTXSID2025688,C1COCCN1,"InChI=1S/C4H9NO/c1-3-6-4-2-5-1/h5H,1-4H2",YNAVUWVOSKDBBP-UHFFFAOYSA-N,?,,"HANSCH,C ET AL. (1995)",-0.86
101210,110-97-4,110-97-4,[H]OC([H])(C([H])([H])[H])C([H])([H])N([H])C([H])([H])C([H])(O[H])C([H])([H])[H],DIISOPROPANOLAMINE,Diisopropanolamine,"1,1'-iminodipropan-2-ol",5853,DTXSID8020179,CC(O)CNCC(C)O,"InChI=1S/C6H15NO2/c1-5(8)3-7-4-6(2)9/h5-9H,3-4H2,1-2H3",LVTYICIALWPMFW-UHFFFAOYSA-N,?,,"HANSCH,C ET AL. (1995)",-0.82
101211,111-13-7,111-13-7,[H]C([H])([H])C(=O)C([H])([H])C([H])([H])C([H])([H])C([H])([H])C([H])([H])C([H])([H])[H],2-OCTANONE,2-Octanone,octan-2-one,5854,DTXSID4021927,CCCCCCC(C)=O,"InChI=1S/C8H16O/c1-3-4-5-6-7-8(2)9/h3-7H2,1-2H3",ZPVFWPFBNIEHGJ-UHFFFAOYSA-N,?,,"TANII,H & HASHIMOTO,K (1986)",2.37
101212,111-14-8,111-14-8,[H]OC(=O)C([H])([H])C([H])([H])C([H])([H])C([H])([H])C([H])([H])C([H])([H])[H],HEPTANOIC ACID,Heptanoic acid,heptanoic acid,5855,DTXSID2021600,CCCCCCC(O)=O,"InChI=1S/C7H14O2/c1-2-3-4-5-6-7(8)9/h2-6H2,1H3,(H,8,9)",MNWFXJYAOYHMED-UHFFFAOYSA-N,?,,SANGSTER (1994),2.42
101214,111-25-1,111-25-1,[H]C([H])([H])C([H])([H])C([H])([H])C([H])([H])C([H])([H])C([H])([H])Br,1-BROMOHEXANE,1-Bromohexane,1-bromohexane,5857,DTXSID4021929,CCCCCCBr,"InChI=1S/C6H13Br/c1-2-3-4-5-6-7/h2-6H2,1H3",MNDIARAMWBIKFW-UHFFFAOYSA-N,?,,"HANSCH,C ET AL. (1995)",3.8
101215,111-26-2,111-26-2,[H]N([H])C([H])([H])C([H])([H])C([H])([H])C([H])([H])C([H])([H])C([H])([H])[H],N-HEXYLAMINE,Hexylamine,hexan-1-amine,5858,DTXSID3021930,CCCCCCN,"InChI=1S/C6H15N/c1-2-3-4-5-6-7/h2-7H2,1H3",BMVXCPBXGZKUPN-UHFFFAOYSA-N,?,,"HANSCH,C ET AL. (1995)",2.06
101216,111-27-3,111-27-3,[H]OC([H])([H])C([H])([H])C([H])([H])C([H])([H])C([H])([H])C([H])([H])[H],1-HEXANOL,1-Hexanol,hexan-1-ol,5859,DTXSID8021931,CCCCCCO,"InChI=1S/C6H14O/c1-2-3-4-5-6-7/h7H,2-6H2,1H3",ZSIAUFGUXNUGDI-UHFFFAOYSA-N,?,,"HANSCH,C ET AL. (1995)",2.03
101218,111-43-3,111-43-3,[H]C([H])([H])C([H])([H])C([H])([H])OC([H])([H])C([H])([H])C([H])([H])[H],DI(N-PROPYL) ETHER,Propyl ether,dipropyl ether,5861,DTXSID8042343,CCCOCCC,"InChI=1S/C6H14O/c1-3-5-7-6-4-2/h3-6H2,1-2H3",POLCUAVZOMRGSN-UHFFFAOYSA-N,?,,"HANSCH,C ET AL. (1995)",2.03
101219,111-44-4,111-44-4,[H]C([H])(Cl)C([H])([H])OC([H])([H])C([H])([H])Cl,BIS(2-CHLOROETHYL) ETHER,Bis(2-chloroethyl) ether,bis(2-chloroethyl) ether,5862,DTXSID9020168,ClCCOCCCl,InChI=1S/C4H8Cl2O/c5-1-3-7-4-2-6/h1-4H2,ZNSMNVMLTJELDZ-UHFFFAOYSA-N,?,,"HANSCH,C ET AL. (1995)",1.29
101220,111-45-5,111-45-5,[H]OC([H])([H])C([H])([H])OC([H])([H])C([H])=C([H])[H],"ETHANOL, 2-(2-PROPENYLOXY)-","Ethanol, 2-(2-propenyloxy)-",2-prop-2-enoxyethanol,5863,DTXSID0059401,C=CCOCCO,"InChI=1S/C5H10O2/c1-2-4-7-5-3-6/h2,6H,1,3-5H2",GCYHRYNSUGLLMA-UHFFFAOYSA-N,?,,"TANII,H ET AL. (1992)",-0.1
101222,111-65-9,111-65-9,[H]C([H])([H])C([H])([H])C([H])([H])C([H])([H])C([H])([H])C([H])([H])C([H])([H])C([H])([H])[H],OCTANE,Octane,octane,5865,DTXSID0026882,CCCCCCCC,"InChI=1S/C8H18/c1-3-5-7-8-6-4-2/h3-8H2,1-2H3",TVMXDCGIABBOFY-UHFFFAOYSA-N,?,,"MILLER,MM ET AL. (1985)",5.18
101223,111-66-0,111-66-0,[H]C([H])=C([H])C([H])([H])C([H])([H])C([H])([H])C([H])([H])C([H])([H])C([H])([H])[H],1-OCTENE,1-Octene,oct-1-ene,5866,DTXSID6025804,CCCCCCC=C,"InChI=1S/C8H16/c1-3-5-7-8-6-4-2/h3H,1,4-8H2,2H3",KWKAKUADMBZCLK-UHFFFAOYSA-N,?,,"HANSCH,C ET AL. (1995)",4.57