ChemID,source_casrn,CAS,SMILES,NAME,preferred_name,iupac,MPID,dsstox_substance_id,Canonical_QSARr,InChI_Code_QSARr,InChI Key_QSARr,Salt_Solvent,Salt_Solvent_ID,Kow Reference,LogP
100137,56-91-7,56-91-7,[H]OC(=O)C1=C([H])C([H])=C(C([H])([H])N([H])[H])C([H])=C1[H],4-AMINOMETHYLBENZOIC ACID,4-Aminomethylbenzoic acid,4-(Aminomethyl)benzoic acid,4805,DTXSID20204568,NCc1ccc(cc1)C(O)=O,"InChI=1S/C8H9NO2/c9-5-6-1-3-7(4-2-6)8(10)11/h1-4H,5,9H2,(H,10,11)",QCTBMLYLENLHLA-UHFFFAOYSA-N,?,,"DA,YZ ET AL. (1992)",1.03
100139,57-10-3,57-10-3,[H]OC(=O)C([H])([H])C([H])([H])C([H])([H])C([H])([H])C([H])([H])C([H])([H])C([H])([H])C([H])([H])C([H])([H])C([H])([H])C([H])([H])C([H])([H])C([H])([H])C([H])([H])C([H])([H])[H],PALMITIC ACID,Hexadecanoic acid,hexadecanoic acid,4807,DTXSID2021602,CCCCCCCCCCCCCCCC(O)=O,"InChI=1S/C16H32O2/c1-2-3-4-5-6-7-8-9-10-11-12-13-14-15-16(17)18/h2-15H2,1H3,(H,17,18)",IPCSVZSSVZVIGE-UHFFFAOYSA-N,?,,SANGSTER (1993),7.17
100140,57-11-4,57-11-4,[H]OC(=O)C([H])([H])C([H])([H])C([H])([H])C([H])([H])C([H])([H])C([H])([H])C([H])([H])C([H])([H])C([H])([H])C([H])([H])C([H])([H])C([H])([H])C([H])([H])C([H])([H])C([H])([H])C([H])([H])C([H])([H])[H],STEARIC ACID,Octadecanoic acid,octadecanoic acid,4808,DTXSID8021642,CCCCCCCCCCCCCCCCCC(O)=O,"InChI=1S/C18H36O2/c1-2-3-4-5-6-7-8-9-10-11-12-13-14-15-16-17-18(19)20/h2-17H2,1H3,(H,19,20)",QIQXTHQIDYTFRH-UHFFFAOYSA-N,?,,SANGSTER (1993),8.23
100141,57-13-6,57-13-6,[H]N([H])C(=O)N([H])[H],UREA,Urea,urea,4809,DTXSID4021426,NC(N)=O,"InChI=1S/CH4N2O/c2-1(3)4/h(H4,2,3,4)",XSQUKJJJFZCRTK-UHFFFAOYSA-N,?,,"HANSCH,C ET AL. (1995)",-2.11
100144,57-24-9,57-24-9,[H]C1=C([H])C([H])=C2C(=C1[H])N1C(=O)C([H])([H])C3([H])OC([H])([H])C([H])=C4C([H])([H])N5C([H])([H])C([H])([H])C26C5([H])C([H])([H])C4([H])C3([H])C16[H],STRYCHNINE,Strychnine,strychnidin-10-one,4811,DTXSID6023600,O=C1CC2OCC=C3CN4CCC56C(C2C3CC54)N1c1ccccc61,"InChI=1S/C21H22N2O2/c24-18-10-16-19-13-9-17-21(6-7-22(17)11-12(13)5-8-25-16)14-3-1-2-4-15(14)23(18)20(19)21/h1-5,13,16-17,19-20H,6-11H2",QMGVPVSNSZLJIA-UHFFFAOYSA-N,?,,"HANSCH,C ET AL. (1995)",1.93
100145,57-27-2,57-27-2,[H]OC1=C([H])C([H])=C2C3=C1OC1([H])C([H])(O[H])C([H])=C([H])C4([H])C([H])(N(C([H])([H])[H])C([H])([H])C([H])([H])C314)C2([H])[H],MORPHINE,Morphine,"(5alpha,6alpha)-17-methyl-7,8-didehydro-4,5-epoxymorphinan-3,6-diol",4812,DTXSID9023336,CN1CCC23C4Oc5c2c(CC1C3C=CC4O)ccc5O,"InChI=1S/C17H19NO3/c1-18-7-6-17-10-3-5-13(20)16(17)21-15-12(19)4-2-9(14(15)17)8-11(10)18/h2-5,10-11,13,16,19-20H,6-8H2,1H3",BQJCRHHNABKAKU-UHFFFAOYSA-N,?,,"AVDEEF,A ET AL. (1996)",0.89
100146,57-41-0,57-41-0,[H]C1=C([H])C([H])=C(C2(C3=C([H])C([H])=C([H])C([H])=C3[H])C(=O)N([H])C(=O)N2[H])C([H])=C1[H],PHENYTOIN,"5,5-Diphenylhydantoin","5,5-diphenylimidazolidine-2,4-dione",4813,DTXSID8020541,O=C1NC(=O)C(N1)(c1ccccc1)c1ccccc1,"InChI=1S/C15H12N2O2/c18-13-15(17-14(19)16-13,11-7-3-1-4-8-11)12-9-5-2-6-10-12/h1-10H,(H2,16,17,18,19)",CXOFVDLJLONNDW-UHFFFAOYSA-N,?,,"HANSCH,C ET AL. (1995)",2.47
100148,57-43-2,57-43-2,[H]N1C(=O)N([H])C(=O)C(C([H])([H])C([H])([H])[H])(C([H])([H])C([H])([H])C([H])(C([H])([H])[H])C([H])([H])[H])C1=O,AMOBARBITAL,Amobarbital,"5-ethyl-5-(3-methylbutyl)pyrimidine-2,4,6(1H,3H,5H)-trione",4815,DTXSID9020081,CCC1(CCC(C)C)C(=O)NC(=O)NC1=O,"InChI=1S/C11H18N2O3/c1-4-11(6-5-7(2)3)8(14)12-10(16)13-9(11)15/h7H,4-6H2,1-3H3,(H2,12,13,14,15,16)",VIROVYVQCGLCII-UHFFFAOYSA-N,?,,"HANSCH,C ET AL. (1995)",2.07
100149,57-44-3,57-44-3,[H]N1C(=O)N([H])C(=O)C(C([H])([H])C([H])([H])[H])(C([H])([H])C([H])([H])[H])C1=O,BARBITAL,Barbital,"5,5-diethylpyrimidine-2,4,6(1H,3H,5H)-trione",4816,DTXSID5022643,CCC1(CC)C(=O)NC(=O)NC1=O,"InChI=1S/C8H12N2O3/c1-3-8(4-2)5(11)9-7(13)10-6(8)12/h3-4H2,1-2H3,(H2,9,10,11,12,13)",FTOAOBMCPZCFFF-UHFFFAOYSA-N,?,,"HANSCH,C ET AL. (1995)",0.65
100150,57-47-6,57-47-6,[H]C1=C(OC(=O)N([H])C([H])([H])[H])C([H])=C2C(=C1[H])N(C([H])([H])[H])C1([H])N(C([H])([H])[H])C([H])([H])C([H])([H])C21C([H])([H])[H],PHYSOSTIGMINE,Physostigmine,"(3aS,8aR)-1,3a,8-trimethyl-1,2,3,3a,8,8a-hexahydropyrrolo[2,3-b]indol-5-yl methylcarbamate",4817,DTXSID3023471,CN1CCC2(C)C1N(C)c1ccc(cc21)OC(=O)NC,"InChI=1S/C15H21N3O2/c1-15-7-8-17(3)13(15)18(4)12-6-5-10(9-11(12)15)20-14(19)16-2/h5-6,9,13H,7-8H2,1-4H3,(H,16,19)",PIJVFDBKTWXHHD-UHFFFAOYSA-N,?,,"HANSCH,C ET AL. (1995)",1.58
100152,57-53-4,57-53-4,[H]N([H])C(=O)OC([H])([H])C(C([H])([H])[H])(C([H])([H])OC(=O)N([H])[H])C([H])([H])C([H])([H])C([H])([H])[H],MEPROBAMATE,Meprobamate,2-[(carbamoyloxy)methyl]-2-methylpentyl carbamate,4819,DTXSID3023261,CCCC(C)(COC(N)=O)COC(N)=O,"InChI=1S/C9H18N2O4/c1-3-4-9(2,5-14-7(10)12)6-15-8(11)13/h3-6H2,1-2H3,(H2,10,12)(H2,11,13)",NPPQSCRMBWNHMW-UHFFFAOYSA-N,?,,"HANSCH,C ET AL. (1995)",0.7
100153,57-55-6,57-55-6,[H]OC([H])([H])C([H])(O[H])C([H])([H])[H],"1,2-PROPANEDIOL","1,2-Propylene glycol","propane-1,2-diol",4820,DTXSID0021206,CC(O)CO,"InChI=1S/C3H8O2/c1-3(5)2-4/h3-5H,2H2,1H3",DNIAPMSPPWPWGF-UHFFFAOYSA-N,?,,"HANSCH,C ET AL. (1995)",-0.92
100154,57-62-5,57-62-5,[H]OC1=C([H])C([H])=C(Cl)C2=C1C(=O)C1=C(O[H])C3(O[H])C(=O)C(C(=O)N([H])[H])=C(O[H])C([H])(N(C([H])([H])[H])C([H])([H])[H])C3([H])C([H])([H])C1([H])C2(O[H])C([H])([H])[H],AUREOMYCIN,Chlortetracycline,"(4S,4aS,5aS,6S,12aS)-7-chloro-4-(dimethylamino)-3,6,10,12,12a-pentahydroxy-6-methyl-1,11-dioxo-1,4,4a,5,5a,6,11,12a-octahydrotetracene-2-carboxamide",4821,DTXSID9022811,CC1(O)C2CC3C(C(O)=C(C(N)=O)C(=O)C3(O)C(O)=C2C(=O)c2c1c(Cl)ccc2O)N(C)C,"InChI=1S/C22H23ClN2O8/c1-21(32)7-6-8-15(25(2)3)17(28)13(20(24)31)19(30)22(8,33)18(29)11(7)16(27)12-10(26)5-4-9(23)14(12)21/h4-5,7-8,15,26,28-29,32-33H,6H2,1-3H3,(H2,24,31)",CYDMQBQPVICBEU-UHFFFAOYSA-N,?,,SANGSTER (1993),-0.62
100156,57-66-9,57-66-9,[H]OC(=O)C1=C([H])C([H])=C(S(=O)(=O)N(C([H])([H])C([H])([H])C([H])([H])[H])C([H])([H])C([H])([H])C([H])([H])[H])C([H])=C1[H],PROBENECID,Probenecid,4-(dipropylsulfamoyl)benzoic acid,4823,DTXSID9021188,CCCN(CCC)S(=O)(=O)c1ccc(cc1)C(O)=O,"InChI=1S/C13H19NO4S/c1-3-9-14(10-4-2)19(17,18)12-7-5-11(6-8-12)13(15)16/h5-8H,3-4,9-10H2,1-2H3,(H,15,16)",DBABZHXKTCFAPX-UHFFFAOYSA-N,?,,"HANSCH,C ET AL. (1995)",3.21
100157,57-67-0,57-67-0,[H]/N=C(\N([H])[H])N([H])S(=O)(=O)C1=C([H])C([H])=C(N([H])[H])C([H])=C1[H],SULFANILYL GUANADINE,Sulfaguanidine,4-amino-N-carbamimidoylbenzenesulfonamide,4824,DTXSID1023609,Nc1ccc(cc1)S(=O)(=O)NC(N)=N,"InChI=1S/C7H10N4O2S/c8-5-1-3-6(4-2-5)14(12,13)11-7(9)10/h1-4H,8H2,(H4,9,10,11)",BRBKOPJOKNSWSG-UHFFFAOYSA-N,?,,"HANSCH,C ET AL. (1995)",-1.22
100158,57-68-1,57-68-1,[H]C1=C([H])C(S(=O)(=O)N([H])C2=NC(C([H])([H])[H])=C([H])C(C([H])([H])[H])=N2)=C([H])C([H])=C1N([H])[H],SULFAMETHAZINE,Sulfamethazine,"4-amino-N-(4,6-dimethylpyrimidin-2-yl)benzenesulfonamide",4825,DTXSID6021290,Cc1cc(C)[n]c(NS(=O)(=O)c2ccc(N)cc2)[n]1,"InChI=1S/C12H14N4O2S/c1-8-7-9(2)15-12(14-8)16-19(17,18)11-5-3-10(13)4-6-11/h3-7H,13H2,1-2H3,(H,14,15,16)",ASWVTGNCAZCNNR-UHFFFAOYSA-N,?,,"TAKACS-NOVAK,K ET AL. (1995)",0.19
100160,57-83-0,57-83-0,[H]C1=C2C([H])([H])C([H])([H])C3([H])C([H])(C([H])([H])C([H])([H])C4(C([H])([H])[H])C([H])(C(=O)C([H])([H])[H])C([H])([H])C([H])([H])C34[H])C2(C([H])([H])[H])C([H])([H])C([H])([H])C1=O,PROGESTERONE,Progesterone,"pregn-4-ene-3,20-dione",4827,DTXSID3022370,CC(=O)C1CCC2C3CCC4=CC(=O)CCC4(C)C3CCC21C,"InChI=1S/C21H30O2/c1-13(22)17-6-7-18-16-5-4-14-12-15(23)8-10-20(14,2)19(16)9-11-21(17,18)3/h12,16-19H,4-11H2,1-3H3",RJKFOVLPORLFTN-UHFFFAOYSA-N,?,,"HANSCH,C ET AL. (1995)",3.87
100161,57-96-5,57-96-5,[H]C1=C([H])C([H])=C(N2C(=O)C([H])(C([H])([H])C([H])([H])S(=O)C3=C([H])C([H])=C([H])C([H])=C3[H])C(=O)N2C2=C([H])C([H])=C([H])C([H])=C2[H])C([H])=C1[H],SULFOXYPHENYL PYRAZOLIDINE,Sulfinpyrazone,"1,2-diphenyl-4-[2-(phenylsulfinyl)ethyl]pyrazolidine-3,5-dione",4828,DTXSID0023618,O=S(CCC1C(=O)N(c2ccccc2)N(c2ccccc2)C1=O)c1ccccc1,"InChI=1S/C23H20N2O3S/c26-22-21(16-17-29(28)20-14-8-3-9-15-20)23(27)25(19-12-6-2-7-13-19)24(22)18-10-4-1-5-11-18/h1-15,21H,16-17H2",MBGGBVCUIVRRBF-UHFFFAOYSA-N,?,,"HANSCH,C ET AL. (1995)",2.3
100162,57-97-6,57-97-6,[H]C1=C([H])C([H])=C2C(=C1[H])C([H])=C([H])C1=C(C([H])([H])[H])C3=C([H])C([H])=C([H])C([H])=C3C(C([H])([H])[H])=C21,"7,12-DIME-BENZ(A)ANTHRACENE","7,12-Dimethylbenz(a)anthracene","7,12-dimethyltetraphene",4829,DTXSID1020510,Cc1c2ccc3ccccc3c2c(C)c2ccccc12,"InChI=1S/C20H16/c1-13-16-8-5-6-9-17(16)14(2)20-18(13)12-11-15-7-3-4-10-19(15)20/h3-12H,1-2H3",ARSRBNBHOADGJU-UHFFFAOYSA-N,?,,"HANSCH,C ET AL. (1995)",5.8
100164,58-08-2,58-08-2,[H]C1=NC2=C(C(=O)N(C([H])([H])[H])C(=O)N2C([H])([H])[H])N1C([H])([H])[H],CAFFEINE,Caffeine,"1,3,7-trimethyl-3,7-dihydro-1H-purine-2,6-dione",4831,DTXSID0020232,CN1C(=O)c2c([n]c[n]2C)N(C)C1=O,"InChI=1S/C8H10N4O2/c1-10-4-9-6-5(10)7(13)12(3)8(14)11(6)2/h4H,1-3H3",RYYVLZVUVIJVGH-UHFFFAOYSA-N,?,,"HANSCH,C ET AL. (1995)",-0.07
100165,58-14-0,58-14-0,[H]C1=C([H])C(C2=C(C([H])([H])C([H])([H])[H])N=C(N([H])[H])N=C2N([H])[H])=C([H])C([H])=C1Cl,PYRIMETHAMINE,Pyrimethamine,"5-(4-chlorophenyl)-6-ethylpyrimidine-2,4-diamine",4832,DTXSID9021217,CCc1[n]c(N)[n]c(N)c1-c1ccc(Cl)cc1,"InChI=1S/C12H13ClN4/c1-2-9-10(11(14)17-12(15)16-9)7-3-5-8(13)6-4-7/h3-6H,2H2,1H3,(H4,14,15,16,17)",WKSAUQYGYAYLPV-UHFFFAOYSA-N,?,,"HANSCH,C ET AL. (1995)",2.69
100166,58-15-1,58-15-1,[H]C1=C([H])C([H])=C(N2C(=O)C(N(C([H])([H])[H])C([H])([H])[H])=C(C([H])([H])[H])N2C([H])([H])[H])C([H])=C1[H],AMINOPYRINE,4-Dimethylaminoantipyrine,"4-(dimethylamino)-1,5-dimethyl-2-phenyl-1,2-dihydro-3H-pyrazol-3-one",4833,DTXSID7020504,CN(C)C1C(=O)N(c2ccccc2)N(C)C=1C,"InChI=1S/C13H17N3O/c1-10-12(14(2)3)13(17)16(15(10)4)11-8-6-5-7-9-11/h5-9H,1-4H3",RMMXTBMQSGEXHJ-UHFFFAOYSA-N,?,,"HANSCH,C ET AL. (1995)",1.0
100168,58-19-5,58-19-5,[H]OC1([H])C([H])([H])C([H])([H])C2([H])C3([H])C([H])([H])C([H])([H])C4([H])C([H])([H])C(=O)C([H])(C([H])([H])[H])C([H])([H])C4(C([H])([H])[H])C3([H])C([H])([H])C([H])([H])C12C([H])([H])[H],DROMOSTANOLONE,Dromostanolone,"(2alpha,5alpha,17beta)-17-hydroxy-2-methylandrostan-3-one",4835,DTXSID6022971,CC1CC2(C)C3CCC4(C)C(O)CCC4C3CCC2CC1=O,"InChI=1S/C20H32O2/c1-12-11-20(3)13(10-17(12)21)4-5-14-15-6-7-18(22)19(15,2)9-8-16(14)20/h12-16,18,22H,4-11H2,1-3H3",IKXILDNPCZPPRV-UHFFFAOYSA-N,?,,"HANSCH,C ET AL. (1995)",3.99
100169,58-22-0,58-22-0,[H]OC1([H])C([H])([H])C([H])([H])C2([H])C3([H])C([H])([H])C([H])([H])C4=C([H])C(=O)C([H])([H])C([H])([H])C4(C([H])([H])[H])C3([H])C([H])([H])C([H])([H])C12C([H])([H])[H],TESTOSTERONE,Testosterone,(17beta)-17-hydroxyandrost-4-en-3-one,4836,DTXSID8022371,CC12CCC3C(CCC4=CC(=O)CCC43C)C1CCC2O,"InChI=1S/C19H28O2/c1-18-9-7-13(20)11-12(18)3-4-14-15-5-6-17(21)19(15,2)10-8-16(14)18/h11,14-17,21H,3-10H2,1-2H3",MUMGGOZAMZWBJJ-UHFFFAOYSA-N,?,,"HANSCH,C ET AL. (1995)",3.32
100170,58-25-3,58-25-3,[H]C1=C([H])C([H])=C(C2=[N+]([O-])C([H])([H])C(N([H])C([H])([H])[H])=NC3=C([H])C([H])=C(Cl)C([H])=C32)C([H])=C1[H],LIBRIUM,Chlordiazepoxide,"7-chloro-N-methyl-5-phenyl-3H-1,4-benzodiazepin-2-amine 4-oxide",4837,DTXSID4046022,CNC1C[N+]([O-])=C(c2cc(Cl)ccc2N=1)c1ccccc1,"InChI=1S/C16H14ClN3O/c1-18-15-10-20(21)16(11-5-3-2-4-6-11)13-9-12(17)7-8-14(13)19-15/h2-9H,10H2,1H3,(H,18,19)",ANTSCNMPPGJYLG-UHFFFAOYSA-N,?,,"HANSCH,C ET AL. (1995)",2.44
100172,58-37-7,NOCAS_861592,[H]C1=C([H])C([H])=C2C(=C1[H])SC1=C([H])C([H])=C([H])C([H])=C1N2C([H])([H])C([H])(N(C([H])([H])[H])C([H])([H])[H])C([H])([H])N(C([H])([H])[H])C([H])([H])[H],AMINOPROMAZINE,,,4839,DTXSID00861592,CN(C)CC(CN1c2ccccc2Sc2ccccc12)N(C)C,"InChI=1S/C19H25N3S/c1-20(2)13-15(21(3)4)14-22-16-9-5-7-11-18(16)23-19-12-8-6-10-17(19)22/h5-12,15H,13-14H2,1-4H3",YZQNFFLGIYEXMM-UHFFFAOYSA-N,?,,"HANSCH,C ET AL. (1995)",4.76
100173,58-38-8,58-38-8,[H]C1=C([H])C2=C(C([H])=C1[H])N(C([H])([H])C([H])([H])C([H])([H])N1C([H])([H])C([H])([H])N(C([H])([H])[H])C([H])([H])C1([H])[H])C1=C([H])C(Cl)=C([H])C([H])=C1S2,Prochloroperazine,Prochlorperazine,2-chloro-10-[3-(4-methylpiperazin-1-yl)propyl]-10H-phenothiazine,4840,DTXSID7023514,CN1CCN(CCCN2c3ccccc3Sc3ccc(Cl)cc23)CC1,"InChI=1S/C20H24ClN3S/c1-22-11-13-23(14-12-22)9-4-10-24-17-5-2-3-6-19(17)25-20-8-7-16(21)15-18(20)24/h2-3,5-8,15H,4,9-14H2,1H3",WIKYUJGCLQQFNW-UHFFFAOYSA-N,?,,"HANSCH,C ET AL. (1995)",4.88
100174,58-39-9,58-39-9,[H]OC([H])([H])C([H])([H])N1C([H])([H])C([H])([H])N(C([H])([H])C([H])([H])C([H])([H])N2C3=C([H])C(Cl)=C([H])C([H])=C3SC3=C2C([H])=C([H])C([H])=C3[H])C([H])([H])C1([H])[H],PERPHENAZINE,Perphenazine,2-{4-[3-(2-chloro-10H-phenothiazin-10-yl)propyl]piperazin-1-yl}ethanol,4841,DTXSID1023441,OCCN1CCN(CCCN2c3ccccc3Sc3ccc(Cl)cc23)CC1,"InChI=1S/C21H26ClN3OS/c22-17-6-7-21-19(16-17)25(18-4-1-2-5-20(18)27-21)9-3-8-23-10-12-24(13-11-23)14-15-26/h1-2,4-7,16,26H,3,8-15H2",RGCVKNLCSQQDEP-UHFFFAOYSA-N,?,,"HANSCH,C ET AL. (1995)",4.2
100177,58-61-7,58-61-7,[H]OC([H])([H])C1([H])OC([H])(N2C([H])=NC3=C(N([H])[H])N=C([H])N=C32)C([H])(O[H])C1([H])O[H],ADENOSINE,Adenosine,adenosine,4843,DTXSID1022558,Nc1[n]c[n]c2c1[n]c[n]2C1OC(CO)C(O)C1O,"InChI=1S/C10H13N5O4/c11-8-5-9(13-2-12-8)15(3-14-5)10-7(18)6(17)4(1-16)19-10/h2-4,6-7,10,16-18H,1H2,(H2,11,12,13)",OIRDTQYFTABQOQ-UHFFFAOYSA-N,?,,"HANSCH,C ET AL. (1995)",-1.05
100178,58-63-9,58-63-9,[H]OC1=C2N=C([H])N(C3([H])OC([H])(C([H])([H])O[H])C([H])(O[H])C3([H])O[H])C2=NC([H])=N1,INOSINE,Inosine,9-(beta-D-ribofuranosyl)-9H-purin-6-ol,4844,DTXSID2045993,Oc1[n]c[n]c2c1[n]c[n]2C1OC(CO)C(O)C1O,"InChI=1S/C10H12N4O5/c15-1-4-6(16)7(17)10(19-4)14-3-13-5-8(14)11-2-12-9(5)18/h2-4,6-7,10,15-17H,1H2,(H,11,12,18)",UGQMRVRMYYASKQ-UHFFFAOYSA-N,?,,"HANSCH,C ET AL. (1995)",-2.1
100180,58-73-1,58-73-1,[H]C1=C([H])C([H])=C(C([H])(OC([H])([H])C([H])([H])N(C([H])([H])[H])C([H])([H])[H])C2=C([H])C([H])=C([H])C([H])=C2[H])C([H])=C1[H],DIPHENHYDRAMINE,Diphenhydramine,C17H21NO,4845,DTXSID4022949,CN(C)CCOC(c1ccccc1)c1ccccc1,"InChI=1S/C17H21NO/c1-18(2)13-14-19-17(15-9-5-3-6-10-15)16-11-7-4-8-12-16/h3-12,17H,13-14H2,1-2H3",ZZVUWRFHKOJYTH-UHFFFAOYSA-N,?,,"HANSCH,C ET AL. (1995)",3.27
100182,58-89-9|319-84-6|319-85-7|319-86-8,58-89-9|319-84-6|319-85-7|319-86-8,[H]C1(Cl)C([H])(Cl)C([H])(Cl)C([H])(Cl)C([H])(Cl)C1([H])Cl,"GAMMA-HEXACHLOROCYCLOHEXANE, ALPHA-HEXACHLOROCYCLOHEXANE, BETA-HEXACHLOROCYCLOHEXANE, DELTA-HEXACHLOROCYCLOHEXANE",Lindane,,4847|6386|6387|6388,DTXSID2020686|DTXSID2020684|DTXSID7020685|DTXSID5024134,ClC1C(Cl)C(Cl)C(Cl)C(Cl)C1Cl,InChI=1S/C6H6Cl6/c7-1-2(8)4(10)6(12)5(11)3(1)9/h1-6H,JLYXXMFPNIAWKQ-UHFFFAOYSA-N,?,,"HANSCH,C ET AL. (1995)",3.72
100183,58-90-2,58-90-2,[H]OC1=C(Cl)C([H])=C(Cl)C(Cl)=C1Cl,"2,3,4,6-TETRACHLOROPHENOL","2,3,4,6-Tetrachlorophenol","2,3,4,6-tetrachlorophenol",4848,DTXSID9021716,Oc1c(Cl)cc(Cl)c(Cl)c1Cl,"InChI=1S/C6H2Cl4O/c7-2-1-3(8)6(11)5(10)4(2)9/h1,11H",VGVRPFIJEJYOFN-UHFFFAOYSA-N,?,,"HANSCH,C ET AL. (1995)",4.45
100184,58-93-5,58-93-5,[H]C1=C2C(=C([H])C(S(=O)(=O)N([H])[H])=C1Cl)S(=O)(=O)N([H])C([H])([H])N2[H],HYDROCHLOROTHIAZIDE,Hydrochlorothiazide,"6-chloro-3,4-dihydro-2H-1,2,4-benzothiadiazine-7-sulfonamide 1,1-dioxide",4849,DTXSID2020713,NS(=O)(=O)c1cc2c(cc1Cl)NCNS2(=O)=O,"InChI=1S/C7H8ClN3O4S2/c8-4-1-5-7(2-6(4)16(9,12)13)17(14,15)11-3-10-5/h1-2,10-11H,3H2,(H2,9,12,13)",JZUFKLXOESDKRF-UHFFFAOYSA-N,?,,"HANSCH,C ET AL. (1995)",-0.07
100186,58-96-8,3083-77-0,[H]OC([H])([H])C1([H])OC([H])(N2C(=O)N([H])C(=O)C([H])=C2[H])C([H])(O[H])C1([H])O[H],URIDINE,Arabinofuranosyluracil,"1-[(2R,3S,4S,5R)-3,4-dihydroxy-5-(hydroxymethyl)oxolan-2-yl]pyrimidine-2,4-dione",4851,DTXSID80184832,OCC1OC(C(O)C1O)N1C=CC(=O)NC1=O,"InChI=1S/C9H12N2O6/c12-3-4-6(14)7(15)8(17-4)11-2-1-5(13)10-9(11)16/h1-2,4,6-8,12,14-15H,3H2,(H,10,13,16)",DRTQHJPVMGBUCF-UHFFFAOYSA-N,?,,"HANSCH,C ET AL. (1995)",-1.98
100187,59-05-2,59-05-2,[H]OC(=O)C([H])([H])C([H])([H])C([H])(C(=O)O[H])N([H])C(=O)C1=C([H])C([H])=C(N(C([H])([H])[H])C([H])([H])C2=C([H])N=C3N=C(N([H])[H])N=C(N([H])[H])C3=N2)C([H])=C1[H],METHOTREXATE,Methotrexate,"N-(4-{[(2,4-diaminopteridin-6-yl)methyl](methyl)amino}benzoyl)-L-glutamic acid",4852,DTXSID4020822,CN(Cc1c[n]c2[n]c(N)[n]c(N)c2[n]1)c1ccc(cc1)C(=O)NC(CCC(O)=O)C(O)=O,"InChI=1S/C20H22N8O5/c1-28(9-11-8-23-17-15(24-11)16(21)26-20(22)27-17)12-4-2-10(3-5-12)18(31)25-13(19(32)33)6-7-14(29)30/h2-5,8,13H,6-7,9H2,1H3,(H,25,31)(H,29,30)(H,32,33)(H4,21,22,23,26,27)",FBOZXECLQNJBKD-UHFFFAOYSA-N,?,,"HANSCH,C ET AL. (1995)",-1.85
100188,59-07-4,59-07-4,[H]OC(=O)C1=C([H])C([H])=C(N([H])[H])C([H])=C1OC([H])([H])C([H])([H])[H],2-ETHOXY-4-AMINOBENZOIC ACID,2-Ethoxy-4-aminobenzoic acid,C9H11NO3,4853,DTXSID30436414,CCOc1cc(N)ccc1C(O)=O,"InChI=1S/C9H11NO3/c1-2-13-8-5-6(10)3-4-7(8)9(11)12/h3-5H,2,10H2,1H3,(H,11,12)",FHMHTWLZOLQIFY-UHFFFAOYSA-N,?,,"HANSCH,C ET AL. (1995)",0.99
100190,59-26-7,59-26-7,[H]C1=NC([H])=C(C(=O)N(C([H])([H])C([H])([H])[H])C([H])([H])C([H])([H])[H])C([H])=C1[H],NIKETHAMIDE,"N,N-Diethylnicotinamide","N,N-diethylpyridine-3-carboxamide",4855,DTXSID9046524,CCN(CC)C(=O)c1ccc[n]c1,"InChI=1S/C10H14N2O/c1-3-12(4-2)10(13)9-6-5-7-11-8-9/h5-8H,3-4H2,1-2H3",NCYVXEGFNDZQCU-UHFFFAOYSA-N,?,,"HANSCH,C ET AL. (1995)",0.33
100191,59-31-4,59-31-4,[H]C1=C([H])C2=C([H])C([H])=C([H])C([H])=C2N([H])C1=O,2-(1H)-QUINOLINONE,2(1H)-Quinolinone,1H-quinolin-2-one,4856,DTXSID1058769,O=C1C=Cc2ccccc2N1,"InChI=1S/C9H7NO/c11-9-6-5-7-3-1-2-4-8(7)10-9/h1-6H,(H,10,11)",LISFMEBWQUVKPJ-UHFFFAOYSA-N,?,,"HANSCH,C ET AL. (1995)",1.26
100192,59-40-5,59-40-5,[H]C1=C(N([H])S(=O)(=O)C2=C([H])C([H])=C(N([H])[H])C([H])=C2[H])N=C2C(=N1)C([H])=C([H])C([H])=C2[H],SULFAQUINOXALINE,Sulfaquinoxaline,4-amino-N-(quinoxalin-2-yl)benzenesulfonamide,4857,DTXSID8042424,Nc1ccc(cc1)S(=O)(=O)Nc1c[n]c2ccccc2[n]1,"InChI=1S/C14H12N4O2S/c15-10-5-7-11(8-6-10)21(19,20)18-14-9-16-12-3-1-2-4-13(12)17-14/h1-9H,15H2,(H,17,18)",NHZLNPMOSADWGC-UHFFFAOYSA-N,?,,"HANSCH,C ET AL. (1995)",1.68
100194,59-46-1,59-46-1,[H]C1=C([H])C(N([H])[H])=C([H])C([H])=C1C(=O)OC([H])([H])C([H])([H])N(C([H])([H])C([H])([H])[H])C([H])([H])C([H])([H])[H],PROCAINE,Procaine,2-(diethylamino)ethyl 4-aminobenzoate,4859,DTXSID7045021,CCN(CCOC(=O)c1ccc(N)cc1)CC,"InChI=1S/C13H20N2O2/c1-3-15(4-2)9-10-17-13(16)11-5-7-12(14)8-6-11/h5-8H,3-4,9-10,14H2,1-2H3",MFDFERRIHVXMIY-UHFFFAOYSA-N,?,,"AVDEEF,A (1997)",2.14
100195,59-47-2,59-47-2,[H]OC([H])([H])C([H])(O[H])C([H])([H])OC1=C(C([H])([H])[H])C([H])=C([H])C([H])=C1[H],"1,2-PROPANEDIOL-3-(2-TOLYLOXY)",Mephenesin,"3-(2-methylphenoxy)propane-1,2-diol",4860,DTXSID4023254,Cc1ccccc1OCC(O)CO,"InChI=1S/C10H14O3/c1-8-4-2-3-5-10(8)13-7-9(12)6-11/h2-5,9,11-12H,6-7H2,1H3",JWDYCNIAQWPBHD-UHFFFAOYSA-N,?,,"HANSCH,C ET AL. (1995)",1.41
100196,59-48-3,NOCAS_870389,[H]C1=C([H])C([H])=C2C(=C1[H])N([H])C(=O)C2([H])[H],OXINDOLE,,,4861,DTXSID80870389,O=C1Cc2ccccc2N1,"InChI=1S/C8H7NO/c10-8-5-6-3-1-2-4-7(6)9-8/h1-4H,5H2,(H,9,10)",JYGFTBXVXVMTGB-UHFFFAOYSA-N,?,,"HANSCH,C ET AL. (1995)",1.16
100198,59-50-7,59-50-7,[H]OC1=C([H])C([H])=C(Cl)C(C([H])([H])[H])=C1[H],3-METHYL-4-CHLOROPHENOL,4-Chloro-3-methylphenol,4-chloro-3-methylphenol,4863,DTXSID4021717,Cc1cc(O)ccc1Cl,"InChI=1S/C7H7ClO/c1-5-4-6(9)2-3-7(5)8/h2-4,9H,1H3",CFKMVGJGLGKFKI-UHFFFAOYSA-N,?,,"HANSCH,C ET AL. (1995)",3.1
100199,59-61-0,59-61-0,[H]OC([H])(C1=C([H])C(Cl)=C(Cl)C([H])=C1[H])C([H])([H])N([H])C([H])(C([H])([H])[H])C([H])([H])[H],DICHLORISOPROTERENOL,,,4864,DTXSID20874225,CC(C)NCC(O)c1ccc(Cl)c(Cl)c1,"InChI=1S/C11H15Cl2NO/c1-7(2)14-6-11(15)8-3-4-9(12)10(13)5-8/h3-5,7,11,14-15H,6H2,1-2H3",VKMGSWIFEHZQRS-UHFFFAOYSA-N,?,,"HANSCH,C ET AL. (1995)",3.32
100200,59-63-2,59-63-2,[H]C1=C([H])C([H])=C(C([H])([H])N([H])N([H])C(=O)C2=NOC(C([H])([H])[H])=C2[H])C([H])=C1[H],ISOCARBOXAZID,Isocarboxazid,"N'-benzyl-5-methyl-1,2-oxazole-3-carbohydrazide",4865,DTXSID4023171,Cc1cc([n]o1)C(=O)NNCc1ccccc1,"InChI=1S/C12H13N3O2/c1-9-7-11(15-17-9)12(16)14-13-8-10-5-3-2-4-6-10/h2-7,13H,8H2,1H3,(H,14,16)",XKFPYPQQHFEXRZ-UHFFFAOYSA-N,?,,"HANSCH,C ET AL. (1995)",1.49
100202,59-67-6,59-67-6,[H]OC(=O)C1=C([H])N=C([H])C([H])=C1[H],NICOTINIC ACID,Nicotinic acid,C6H5NO2,4867,DTXSID1020932,OC(=O)c1ccc[n]c1,"InChI=1S/C6H5NO2/c8-6(9)5-2-1-3-7-4-5/h1-4H,(H,8,9)",PVNIIMVLHYAWGP-UHFFFAOYSA-N,?,,SANGSTER (1993),0.36