ChemID,source_casrn,CAS,SMILES,NAME,preferred_name,iupac,MPID,dsstox_substance_id,Canonical_QSARr,InChI_Code_QSARr,InChI Key_QSARr,Salt_Solvent,Salt_Solvent_ID,Kow Reference,LogP
104022,2719-63-3,2719-63-3,[H]C1=C([H])C([H])=C(C([H])(C([H])([H])C([H])([H])C([H])([H])C([H])([H])[H])C([H])([H])C([H])([H])C([H])([H])C([H])([H])C([H])([H])C([H])([H])C([H])([H])[H])C([H])=C1[H],"BENZENE, (1-BUTYLOCTYL)-",,,8525,DTXSID30875107,CCCCC(CCCCCCC)c1ccccc1,"InChI=1S/C18H30/c1-3-5-7-8-10-14-17(13-6-4-2)18-15-11-9-12-16-18/h9,11-12,15-17H,3-8,10,13-14H2,1-2H3",NPAWGLOPXKCTCV-UHFFFAOYSA-N,?,,"SHERBLOM,PM ET AL. (1992)",8.01
104023,2719-64-4,2719-64-4,[H]C1=C([H])C([H])=C(C([H])(C([H])([H])C([H])([H])C([H])([H])[H])C([H])([H])C([H])([H])C([H])([H])C([H])([H])C([H])([H])C([H])([H])C([H])([H])C([H])([H])[H])C([H])=C1[H],(1-PROPYLNONYL)BENZENE,,,8526,DTXSID10875105,CCCCCCCCC(CCC)c1ccccc1,"InChI=1S/C18H30/c1-3-5-6-7-8-10-14-17(13-4-2)18-15-11-9-12-16-18/h9,11-12,15-17H,3-8,10,13-14H2,1-2H3",RHDHXBLZBVAPTL-UHFFFAOYSA-N,?,,"SHERBLOM,PM ET AL. (1992)",8.07
104024,2724-69-8,2724-69-8,[H]C1=C([H])C([H])=C(N([H])C(=S)N([H])C([H])([H])[H])C([H])=C1[H],1-METHYL-3-PHENYLTHIOUREA,N-Methyl-N'-phenylthiourea,3-methyl-1-phenylthiourea,8527,DTXSID7062611,CNC(=S)Nc1ccccc1,"InChI=1S/C8H10N2S/c1-9-8(11)10-7-5-3-2-4-6-7/h2-6H,1H3,(H2,9,10,11)",IGEQFPWPMCIYDF-UHFFFAOYSA-N,?,,POMONA (1987),0.85
104026,2728-05-4,2728-05-4,[H]C1=C([H])C(C([H])([H])[H])=C([H])C([H])=C1C(=O)N(C([H])([H])C([H])([H])[H])C([H])([H])C([H])([H])[H],"BENZAMIDE, N,N-DIETHYL-4-METHYL-",,,8529,DTXSID40876903,Cc1ccc(cc1)C(=O)N(CC)CC,"InChI=1S/C12H17NO/c1-4-13(5-2)12(14)11-8-6-10(3)7-9-11/h6-9H,4-5H2,1-3H3",PUZORFQMRDHKBT-UHFFFAOYSA-N,?,,"SURYANARAYANA,MVS ET AL. (1991)",2.38
104027,2730-04-3,2730-04-3,[H]C1=C([H])C([H])=C(C2=NC([H])([H])C(=O)N([H])C3=C2C([H])=C([H])C(C(F)(F)F)=C3[H])C([H])=C1[H],"1,4-BENZODIAZEPIN-2-ONE,1,3-DIHYDRO-5-PHENYL-8-T",,,8530,DTXSID00877931,O=C1CN=C(c2ccc(cc2N1)C(F)(F)F)c1ccccc1,"InChI=1S/C16H11F3N2O/c17-16(18,19)11-6-7-12-13(8-11)21-14(22)9-20-15(12)10-4-2-1-3-5-10/h1-8H,9H2,(H,21,22)",AOJRGBWRJGTLDT-UHFFFAOYSA-N,?,,BIOBYTE STARLIST (2009),3.18
104028,2730-05-4,2730-05-4,[H]C1=C([H])C2=C(C([H])=C1[H])N([H])C(=O)C([H])([H])N=C2C1=C(C(F)(F)F)C([H])=C([H])C([H])=C1[H],"1,4-BENZODIAZPIN-2-ONE,5-(2CF3PH)",,,8531,DTXSID20877933,O=C1CN=C(c2ccccc2C(F)(F)F)c2ccccc2N1,"InChI=1S/C16H11F3N2O/c17-16(18,19)12-7-3-1-5-10(12)15-11-6-2-4-8-13(11)21-14(22)9-20-15/h1-8H,9H2,(H,21,22)",BVUPVJNDTLPSTE-UHFFFAOYSA-N,?,,"HANSCH,C ET AL. (1995)",2.47
104031,2740-94-5,2740-94-5,[H]C1=C([H])C([H])=C(C([H])([H])N([H])C(=S)N([H])C([H])([H])[H])C([H])=C1[H],1-METHYL-3-BENZYL THIOUREA,3-Benzyl-1-methylthiourea,3-methyl-1-(phenylmethyl)thiourea,8533,DTXSID70181830,CNC(=S)NCc1ccccc1,"InChI=1S/C9H12N2S/c1-10-9(12)11-7-8-5-3-2-4-6-8/h2-6H,7H2,1H3,(H2,10,11,12)",GDUBTTXVKWIAKV-UHFFFAOYSA-N,?,,"HANSCH,C ET AL. (1995)",1.35
104032,2741-06-2,2741-06-2,[H]C1=C([H])C([H])=C(N([H])C(=S)N([H])C([H])([H])C([H])([H])[H])C([H])=C1[H],1-PHENYL-3-ETHYL THIOUREA,"Thiourea, N-ethyl-N'-phenyl-",,8534,DTXSID2062618,CCNC(=S)Nc1ccccc1,"InChI=1S/C9H12N2S/c1-2-10-9(12)11-8-6-4-3-5-7-8/h3-7H,2H2,1H3,(H2,10,11,12)",OROCFDLTBPBLFS-UHFFFAOYSA-N,?,,"HANSCH,C ET AL. (1995)",1.42
104033,2741-14-2,2741-14-2,[H]C1=C([H])C([H])=C(C([H])([H])N([H])C(=S)N(C([H])([H])[H])C([H])([H])[H])C([H])=C1[H],"THIOUREA, N'-(PHENYLMETHYL)-N,N-DIMETHYL","1-benzyl-3,3-dimethylthiourea",C10H14N2S,8535,DTXSID60357628,CN(C)C(=S)NCc1ccccc1,"InChI=1S/C10H14N2S/c1-12(2)10(13)11-8-9-6-4-3-5-7-9/h3-7H,8H2,1-2H3,(H,11,13)",XZGRYNLIECOIAV-UHFFFAOYSA-N,?,,POMONA (1987),1.59
104035,2751-68-0,2751-68-0,[H]OC([H])([H])C([H])([H])N1C([H])([H])C([H])([H])N(C([H])([H])C([H])([H])C([H])([H])N2C3=C([H])C([H])=C([H])C([H])=C3SC3=C([H])C([H])=C(C(=O)C([H])([H])[H])C([H])=C32)C([H])([H])C1([H])[H],Acetophenazine,Acetophenazine,1-(10-{3-[4-(2-hydroxyethyl)piperazin-1-yl]propyl}-10H-phenothiazin-2-yl)ethanone,8537,DTXSID2022547,CC(=O)c1cc2c(cc1)Sc1ccccc1N2CCCN1CCN(CCO)CC1,"InChI=1S/C23H29N3O2S/c1-18(28)19-7-8-23-21(17-19)26(20-5-2-3-6-22(20)29-23)10-4-9-24-11-13-25(14-12-24)15-16-27/h2-3,5-8,17,27H,4,9-16H2,1H3",WNTYBHLDCKXEOT-UHFFFAOYSA-N,?,,SANGSTER (1994),2.62
104036,2752-68-3,2752-68-3,[H]C1=C(Cl)C(OC(=O)N([H])C([H])([H])[H])=C([H])C(C([H])([H])[H])=C1Cl,"2,4-DICL-5-ME-N-ME PHENYLCARBAMATE",,,8538,DTXSID70879745,Cc1cc(OC(=O)NC)c(Cl)cc1Cl,"InChI=1S/C9H9Cl2NO2/c1-5-3-8(14-9(13)12-2)7(11)4-6(5)10/h3-4H,1-2H3,(H,12,13)",LTQFKXFWWQZRLF-UHFFFAOYSA-N,?,,"HANSCH,C ET AL. (1995)",3.0
104037,2756-85-6,2756-85-6,[H]OC(=O)C1(N([H])[H])C([H])([H])C([H])([H])C([H])([H])C([H])([H])C1([H])[H],"Cyclohexanecarboxylic acid, 1-amino-","Cyclohexanecarboxylic acid, 1-amino-",1-Aminocyclohexane-1-carboxylic acid,8539,DTXSID6062626,NC1(CCCCC1)C(O)=O,"InChI=1S/C7H13NO2/c8-7(6(9)10)4-2-1-3-5-7/h1-5,8H2,(H,9,10)",WOXWUZCRWJWTRT-UHFFFAOYSA-N,?,,"TSAI,RS ET AL. (1991)",-1.87
104039,2759-71-9,2759-71-9,[H]C1=C([H])C(N([H])C(=O)C2([H])C([H])([H])C2([H])[H])=C([H])C(Cl)=C1Cl,CYPROMIDE,Cypromid,"N-(3,4-dichlorophenyl)cyclopropanecarboxamide",8541,DTXSID3041827,O=C(Nc1cc(Cl)c(Cl)cc1)C1CC1,"InChI=1S/C10H9Cl2NO/c11-8-4-3-7(5-9(8)12)13-10(14)6-1-2-6/h3-6H,1-2H2,(H,13,14)",PLQDLOBGKJCDSZ-UHFFFAOYSA-N,?,,"HANSCH,C ET AL. (1995)",3.83
104040,2763-96-4,2763-96-4,[H]OC1=NOC(C([H])([H])N([H])[H])=C1[H],MUSCIMOL,Muscimol,"5-(aminomethyl)-1,2-oxazol-3-ol",8542,DTXSID5041069,NCc1cc(O)[n]o1,"InChI=1S/C4H6N2O2/c5-2-3-1-4(7)6-8-3/h1H,2,5H2,(H,6,7)",ZJQHPWUVQPJPQT-UHFFFAOYSA-N,?,,"HANSCH,C ET AL. (1995)",-2.39
104041,2772-46-5,2772-46-5,[H]C1=C(OC([H])([H])[H])C(OC([H])([H])[H])=C([H])C(Cl)=C1Cl,"4,5-Dichloroveratrole","Benzene, 1,2-dichloro-4,5-dimethoxy-","1,2-Dichloro-4,5-dimethoxybenzene",8543,DTXSID20182074,COc1cc(Cl)c(Cl)cc1OC,"InChI=1S/C8H8Cl2O2/c1-11-7-3-5(9)6(10)4-8(7)12-2/h3-4H,1-2H3",RJYXLZQZBLGBOM-UHFFFAOYSA-N,?,,"LUN,R ET AL. (1995)",3.11
104043,2782-91-4,2782-91-4,[H]C([H])([H])N(C(=S)N(C([H])([H])[H])C([H])([H])[H])C([H])([H])[H],TETRAMETHYLTHIOUREA,"1,1,3,3-Tetramethyl-2-thiourea","1,1,3,3-tetramethylthiourea",8545,DTXSID5026126,CN(C)C(=S)N(C)C,InChI=1S/C5H12N2S/c1-6(2)5(8)7(3)4/h1-4H3,MNOILHPDHOHILI-UHFFFAOYSA-N,?,,"GOVERS,H ET AL. (1986)",0.49
104044,2784-27-2,57496-20-5,[H]OC1=C([H])C([H])=C(C2(C3=C([H])C([H])=C([H])C([H])=C3[H])C(=O)N([H])C(=O)N2[H])C([H])=C1[H],"HYDANTOIN,5-PH-5-(P-HYDROXY)PH","4-Hydroxyphenytoin, (S)-","(5S)-5-(4-hydroxyphenyl)-5-phenylimidazolidine-2,4-dione",8546,DTXSID80206104,Oc1ccc(cc1)C1(NC(=O)NC1=O)c1ccccc1,"InChI=1S/C15H12N2O3/c18-12-8-6-11(7-9-12)15(10-4-2-1-3-5-10)13(19)16-14(20)17-15/h1-9,18H,(H2,16,17,19,20)",XEEDURHPFVXALT-UHFFFAOYSA-N,?,,"HANSCH,C ET AL. (1995)",1.7
104045,2786-62-1,2786-62-1,[H]C1=C([H])C([H])=C2C(=C1[H])SC(=O)N2C([H])([H])[H],3-METHYLBENZOTHIAZOL-2-ONE,"2(3H)-Benzothiazolone, 3-methyl-","3-methyl-1,3-benzothiazol-2-one",8547,DTXSID90182167,CN1C(=O)Sc2ccccc12,"InChI=1S/C8H7NOS/c1-9-6-4-2-3-5-7(6)11-8(9)10/h2-5H,1H3",LSMMRJUHLKJNLR-UHFFFAOYSA-N,?,,"HANSCH,C ET AL. (1995)",1.98
104047,2797-37-7,2797-37-7,[H]C1=C([H])C(C([H])([H])OC(=O)N([H])C([H])([H])[H])=C([H])C([H])=C1Cl,"Carbamic acid, methyl-, (4-chlorophenyl)methyl e",,,8549,DTXSID90879444,CNC(=O)OCc1ccc(Cl)cc1,"InChI=1S/C9H10ClNO2/c1-11-9(12)13-6-7-2-4-8(10)5-3-7/h2-5H,6H2,1H3,(H,11,12)",IRDYVYXLTFZDBL-UHFFFAOYSA-N,?,,BIOBYTE (1995),2.42
104048,2797-51-5,2797-51-5,[H]C1=C([H])C([H])=C2C(=O)C(N([H])[H])=C(Cl)C(=O)C2=C1[H],"2-AMINO-3-CHLORO-1,4-NAPHTHOQUINONE","2-Amino-3-chloro-1,4-naphthoquinone","2-amino-3-chloronaphthalene-1,4-dione",8550,DTXSID1041390,NC1=C(Cl)C(=O)c2ccccc2C1=O,"InChI=1S/C10H6ClNO2/c11-7-8(12)10(14)6-4-2-1-3-5(6)9(7)13/h1-4H,12H2",OBLNWSCLAYSJJR-UHFFFAOYSA-N,?,,"HANSCH,C ET AL. (1995)",2.12
104049,2798-54-1,2798-54-1,[H]C1=C([H])C(C(C([H])([H])[H])(C([H])([H])[H])C([H])([H])[H])=C(OC(=O)N([H])C([H])([H])[H])C([H])=C1C([H])([H])[H],N-ME-3-ME-6-T-BU PHENYLCARBAMATE,,,8551,DTXSID10877301,Cc1ccc(c(c1)OC(=O)NC)C(C)(C)C,"InChI=1S/C13H19NO2/c1-9-6-7-10(13(2,3)4)11(8-9)16-12(15)14-5/h6-8H,1-5H3,(H,14,15)",NCGFLJVSNLAFPM-UHFFFAOYSA-N,?,,"HANSCH,C ET AL. (1995)",3.14
104051,2801-68-5,2801-68-5,[H]C1=C(OC([H])([H])[H])C([H])=C(C([H])([H])C([H])(N([H])[H])C([H])([H])[H])C(OC([H])([H])[H])=C1[H],"2,5-DIMETHOXYAMPHETAMINE","(?) - 1-(2,5-Dimethoxyphenyl)-2-aminopropane","1-(2,5-dimethoxyphenyl)propan-2-amine",8553,DTXSID2091540,COc1ccc(cc1CC(C)N)OC,"InChI=1S/C11H17NO2/c1-8(12)6-9-7-10(13-2)4-5-11(9)14-3/h4-5,7-8H,6,12H2,1-3H3",LATVFYDIBMDBSY-UHFFFAOYSA-N,?,,"HANSCH,C ET AL. (1995)",1.72
104052,2809-69-0,2809-69-0,[H]C([H])([H])C#CC#CC([H])([H])[H],"2,4-HEXADIYNE","2,4-Hexadiyne","hexa-2,4-diyne",8554,DTXSID70182367,CC#CC#CC,InChI=1S/C6H6/c1-3-5-6-4-2/h1-2H3,PCTCNWZFDASPLA-UHFFFAOYSA-N,?,,"HANSCH,C ET AL. (1995)",2.24
104053,2810-04-0,2810-04-0,[H]C1=C([H])C([H])=C(C(=O)OC([H])([H])C([H])([H])[H])S1,"THIOPHENE, 2-ETHYL CARBOXYLATE",Ethyl 2-thenoate,ethyl thiophene-2-carboxylate,8555,DTXSID10182381,CCOC(=O)c1ccc[s]1,"InChI=1S/C7H8O2S/c1-2-9-7(8)6-4-3-5-10-6/h3-5H,2H2,1H3",JZGZKRJVTIRPOK-UHFFFAOYSA-N,?,,"HANSCH,C ET AL. (1995)",2.33
104055,2816-24-2,NOCAS_861907,[H]OC([H])([H])C1([H])OC([H])(OC2=C([N+](=O)[O-])C([H])=C([H])C([H])=C2[H])C([H])(O[H])C([H])(O[H])C1([H])O[H],"beta-D-GLUCOPYRANOSIDE, 2-NITROPHENYL",,,8557,DTXSID10861907,[O-][N+](=O)c1ccccc1OC1OC(CO)C(O)C(O)C1O,"InChI=1S/C12H15NO8/c14-5-8-9(15)10(16)11(17)12(21-8)20-7-4-2-1-3-6(7)13(18)19/h1-4,8-12,14-17H,5H2",KUWPCJHYPSUOFW-UHFFFAOYSA-N,?,,SANGSTER (1994),-0.78
104058,2826-25-7,2826-25-7,[H]C(=C(C#N)C#N)C1=C([H])C([H])=C(C([H])([H])[H])C([H])=C1[H],"MALONONITRILE, 4-METHYLBENZAL","Toluene, 4-(2,2-dicyanoethenyl)",C11H8N2,8558,DTXSID00294826,Cc1ccc(C=C(C#N)C#N)cc1,"InChI=1S/C11H8N2/c1-9-2-4-10(5-3-9)6-11(7-12)8-13/h2-6H,1H3",JIFVPBALUHDGEP-UHFFFAOYSA-N,?,,"HANSCH,C ET AL. (1995)",2.4
104059,2827-47-6,2827-47-6,[H]N([H])C1=NC(N(C([H])([H])[H])C([H])([H])[H])=NC(N(C([H])([H])[H])C([H])([H])[H])=N1,TETRAMETHYLMELAMINE,"Melamine, N(sup 2),N(sup 2),N(sup 4),N(sup 4)-tetramethyl-","N2,N2,N6,N6-tetramethyl-1,3,5-triazine-2,4,6-triamine",8559,DTXSID90182526,CN(C)c1[n]c(N)[n]c([n]1)N(C)C,"InChI=1S/C7H14N6/c1-12(2)6-9-5(8)10-7(11-6)13(3)4/h1-4H3,(H2,8,9,10,11)",LVVRSRYXKCKALW-UHFFFAOYSA-N,?,,"HANSCH,C ET AL. (1995)",1.2
104062,2845-79-6,2845-79-6,[H]C1=C([H])C([H])=C(C(=O)N([H])N([H])C(=O)N([H])[H])C([H])=C1[H],1-BENZOYL-2-CARBAMYLHYDRAZINE,2-benzoylhydrazinecarboxamide,C8H9N3O2,8561,DTXSID00282309,NC(=O)NNC(=O)c1ccccc1,"InChI=1S/C8H9N3O2/c9-8(13)11-10-7(12)6-4-2-1-3-5-6/h1-5H,(H,10,12)(H3,9,11,13)",HUZZTWCBDUFIOU-UHFFFAOYSA-N,?,,"HANSCH,C ET AL. (1995)",-0.5
104063,2845-89-8,2845-89-8,[H]C1=C([H])C(Cl)=C([H])C(OC([H])([H])[H])=C1[H],M-CHLOROANISOLE,"Benzene, 1-chloro-3-methoxy-",1-CHLORO-3-METHOXYBENZENE,8562,DTXSID7062667,COc1cccc(Cl)c1,"InChI=1S/C7H7ClO/c1-9-7-4-2-3-6(8)5-7/h2-5H,1H3",YUKILTJWFRTXGB-UHFFFAOYSA-N,?,,"HANSCH,C ET AL. (1995)",2.98
104064,2847-30-5,NOCAS_863034,[H]C1=NC(OC([H])([H])[H])=C(C([H])([H])[H])N=C1[H],"PYRAZINE, 2-METHOXY-3-METHYL-",,,8563,DTXSID80863034,Cc1[n]cc[n]c1OC,"InChI=1S/C6H8N2O/c1-5-6(9-2)8-4-3-7-5/h3-4H,1-2H3",VKJIAEQRKBQLLA-UHFFFAOYSA-N,?,,"YAMAGAMI,C ET AL. (1991)",1.24
104066,2854-99-1,2854-99-1,[H]C1=C(Cl)C(S(=O)(=O)N([H])[H])=C([H])C2=C1N=C(C([H])([H])C([H])([H])C([H])([H])[H])N([H])S2(=O)=O,3-PROPYLCHLOROTHIAZIDE,,,8565,DTXSID30875945,CCCC1NS(=O)(=O)c2cc(c(Cl)cc2N=1)S(N)(=O)=O,"InChI=1S/C10H12ClN3O4S2/c1-2-3-10-13-7-4-6(11)8(19(12,15)16)5-9(7)20(17,18)14-10/h4-5H,2-3H2,1H3,(H,13,14)(H2,12,15,16)",ZOHMJPGNXNJBFU-UHFFFAOYSA-N,?,,SANGSTER (1994),1.21
104067,2859-67-8,2859-67-8,[H]OC([H])([H])C([H])([H])C([H])([H])C1=C([H])C([H])=C([H])N=C1[H],3-PYRIDINEPROPANOL,3-(3-Pyridyl)-1-propanol,3-(pyridin-3-yl)propan-1-ol,8566,DTXSID5022198,OCCCc1c[n]ccc1,"InChI=1S/C8H11NO/c10-6-2-4-8-3-1-5-9-7-8/h1,3,5,7,10H,2,4,6H2",ZUGAIMFLQLPTKB-UHFFFAOYSA-N,?,,"HANSCH,C ET AL. (1995)",0.6
104068,2859-68-9,2859-68-9,[H]OC([H])([H])C([H])([H])C([H])([H])C1=C([H])C([H])=C([H])C([H])=N1,2-PYRIDINEPROPANOL,2-Pyridinepropanol,3-pyridin-2-ylpropan-1-ol,8567,DTXSID6062672,OCCCc1cccc[n]1,"InChI=1S/C8H11NO/c10-7-3-5-8-4-1-2-6-9-8/h1-2,4,6,10H,3,5,7H2",FVZXYJDGVYLMDB-UHFFFAOYSA-N,?,,"HANSCH,C ET AL. (1995)",0.58
104070,2870-04-4,2870-04-4,[H]C1=C([H])C(C([H])([H])[H])=C(C([H])([H])C([H])([H])[H])C(C([H])([H])[H])=C1[H],"1,3-DIMETHYL-2-ETHYLBENZENE",2-Ethyl-m-xylene,"2-ethyl-1,3-dimethylbenzene",8569,DTXSID1062675,CCc1c(C)cccc1C,"InChI=1S/C10H14/c1-4-10-8(2)6-5-7-9(10)3/h5-7H,4H2,1-3H3",CHIKRULMSSADAF-UHFFFAOYSA-N,?,,"SHERBLOM,PM & EGANHOUSE,RP (1988)",4.28
104071,2872-48-2,2872-48-2,[H]C1=C([H])C2=C(C(=O)C3=C(N([H])[H])C(OC([H])([H])[H])=C([H])C(N([H])[H])=C3C2=O)C([H])=C1[H],DISPERSE RED 11,"9,10-Anthracenedione, 1,4-diamino-2-methoxy-","1,4-diamino-2-methoxyanthracene-9,10-dione",8570,DTXSID1062677,COc1cc(N)c2c(C(=O)c3ccccc3C2=O)c1N,"InChI=1S/C15H12N2O3/c1-20-10-6-9(16)11-12(13(10)17)15(19)8-5-3-2-4-7(8)14(11)18/h2-6H,16-17H2,1H3",TUXJTJITXCHUEL-UHFFFAOYSA-N,?,,"BAUGHMAN,GL & WEBER,EJ (1991)",3.5
104072,2872-52-8,2872-52-8,[H]OC([H])([H])C([H])([H])N(C1=C([H])C([H])=C(/N=N/C2=C([H])C([H])=C([N+](=O)[O-])C([H])=C2[H])C([H])=C1[H])C([H])([H])C([H])([H])[H],DISPERSE RED 1,C.I. Disperse Red 1,2-[ethyl-[4-(4-nitrophenyl)diazenylphenyl]amino]ethanol,8571,DTXSID6062678,CCN(CCO)c1ccc(cc1)N=Nc1ccc(cc1)[N+]([O-])=O,"InChI=1S/C16H18N4O3/c1-2-19(11-12-21)15-7-3-13(4-8-15)17-18-14-5-9-16(10-6-14)20(22)23/h3-10,21H,2,11-12H2,1H3/b18-17+",FOQABOMYTOFLPZ-ISLYRVAYSA-N,?,,"BAUGHMAN,GL & WEBER,EJ (1991)",4.3