ChemID,source_casrn,CAS,SMILES,NAME,preferred_name,iupac,MPID,dsstox_substance_id,Canonical_QSARr,InChI_Code_QSARr,InChI Key_QSARr,Salt_Solvent,Salt_Solvent_ID,Kow Reference,LogP
102248,554-12-1,554-12-1,[H]C([H])([H])OC(=O)C([H])([H])C([H])([H])[H],METHYL PROPIONATE,Methyl propanoate,methyl propanoate,6849,DTXSID7027201,CCC(=O)OC,"InChI=1S/C4H8O2/c1-3-4(5)6-2/h3H2,1-2H3",RJUFJBKOKNCXHH-UHFFFAOYSA-N,?,,"CATZ,P & FRIEND,D (1989)",0.84
102251,554-57-4,554-57-4,[H]N([H])S(=O)(=O)C1=NN(C([H])([H])[H])/C(=N/C(=O)C([H])([H])[H])S1,METHAZOLAMIDE,Methazolamide,"N-(3-methyl-5-sulfamoyl-1,3,4-thiadiazol-2(3H)-ylidene)acetamide",6851,DTXSID1023281,CC(=O)N=C1SC(=NN1C)S(N)(=O)=O,"InChI=1S/C5H8N4O3S2/c1-3(10)7-4-9(2)8-5(13-4)14(6,11)12/h1-2H3,(H2,6,11,12)/b7-4-",FLOSMHQXBMRNHR-DAXSKMNVSA-N,?,,"HANSCH,C ET AL. (1995)",0.13
102252,554-61-0,554-61-0,[H]C1=C(C([H])([H])[H])C([H])([H])C([H])([H])C2([H])C1([H])C2(C([H])([H])[H])C([H])([H])[H],2-CARENE,2-Carene,C10H16,6852,DTXSID00858821,CC1CCC2C(C=1)C2(C)C,"InChI=1S/C10H16/c1-7-4-5-8-9(6-7)10(8,2)3/h6,8-9H,4-5H2,1-3H3",IBVJWOMJGCHRRW-UHFFFAOYSA-N,?,,"GRIFFIN,S ET AL. (1999)",4.44
102253,554-84-7,554-84-7,[H]OC1=C([H])C([N+](=O)[O-])=C([H])C([H])=C1[H],3-NITROPHENOL,3-Nitrophenol,3-nitrophenol,6853,DTXSID2025765,[O-][N+](=O)c1cccc(O)c1,"InChI=1S/C6H5NO3/c8-6-3-1-2-5(4-6)7(9)10/h1-4,8H",RTZZCYNQPHTPPL-UHFFFAOYSA-N,?,,"HANSCH,C ET AL. (1995)",2.0
102255,555-16-8,555-16-8,[H]C(=O)C1=C([H])C([H])=C([N+](=O)[O-])C([H])=C1[H],4-NITROBENZALDEHYDE,4-Nitrobenzaldehyde,4-nitrobenzaldehyde,6855,DTXSID5022061,[O-][N+](=O)c1ccc(cc1)C=O,InChI=1S/C7H5NO3/c9-5-6-1-3-7(4-2-6)8(10)11/h1-5H,BXRFQSNOROATLV-UHFFFAOYSA-N,?,,"HANSCH,C ET AL. (1995)",1.56
102256,555-21-5,555-21-5,[H]C1=C([H])C(C([H])([H])C#N)=C([H])C([H])=C1[N+](=O)[O-],"Benzeneacetonitrile, 4-nitro-","Benzeneacetonitrile, 4-nitro-",2-(4-nitrophenyl)acetonitrile,6856,DTXSID3060297,N#CCc1ccc(cc1)[N+]([O-])=O,"InChI=1S/C8H6N2O2/c9-6-5-7-1-3-8(4-2-7)10(11)12/h1-4H,5H2",PXNJGLAVKOXITN-UHFFFAOYSA-N,?,,"HANSCH,C ET AL. (1995)",1.37
102257,555-37-3,555-37-3,[H]C1=C(Cl)C(Cl)=C([H])C(N([H])C(=O)N(C([H])([H])[H])C([H])([H])C([H])([H])C([H])([H])C([H])([H])[H])=C1[H],NEBURON,Neburon,"1-butyl-3-(3,4-dichlorophenyl)-1-methylurea",6857,DTXSID4042200,CCCCN(C)C(=O)Nc1cc(Cl)c(Cl)cc1,"InChI=1S/C12H16Cl2N2O/c1-3-4-7-16(2)12(17)15-9-5-6-10(13)11(14)8-9/h5-6,8H,3-4,7H2,1-2H3,(H,15,17)",CCGPUGMWYLICGL-UHFFFAOYSA-N,?,,"LIU,J & QIAN,C (1995)",4.1
102260,556-08-1,556-08-1,[H]OC(=O)C1=C([H])C([H])=C(N([H])C(=O)C([H])([H])[H])C([H])=C1[H],P-CARBOXYACETANILIDE,4-Acetamidobenzoic acid,4-(acetylamino)benzoic acid,6859,DTXSID5024392,CC(=O)Nc1ccc(cc1)C(O)=O,"InChI=1S/C9H9NO3/c1-6(11)10-8-4-2-7(3-5-8)9(12)13/h2-5H,1H3,(H,10,11)(H,12,13)",QCXJEYYXVJIFCE-UHFFFAOYSA-N,?,,"HANSCH,C ET AL. (1995)",1.31
102261,556-24-1,556-24-1,[H]C([H])([H])OC(=O)C([H])([H])C([H])(C([H])([H])[H])C([H])([H])[H],METHYL (3-METHYL)BUTANOATE,"Butanoic acid, 3-methyl-, methyl ester",Methyl 3-methylbutanoate,6860,DTXSID5060300,COC(=O)CC(C)C,"InChI=1S/C6H12O2/c1-5(2)4-6(7)8-3/h5H,4H2,1-3H3",OQAGVSWESNCJJT-UHFFFAOYSA-N,?,,"HANSCH,C ET AL. (1995)",1.82
102262,556-33-2,556-33-2,[H]OC(=O)C([H])([H])N([H])C(=O)C([H])([H])N([H])C(=O)C([H])([H])N([H])[H],TRIGLYCINE,Glycyl-glycyl-glycine,2-[[2-[(2-aminoacetyl)amino]acetyl]amino]acetic acid,6861,DTXSID80204140,NCC(=O)NCC(=O)NCC(O)=O,"InChI=1S/C6H11N3O4/c7-1-4(10)8-2-5(11)9-3-6(12)13/h1-3,7H2,(H,8,10)(H,9,11)(H,12,13)",XKUKSGPZAADMRA-UHFFFAOYSA-N,?,,POMONA (1987),-2.68
102264,556-52-5,556-52-5,[H]OC([H])([H])C1([H])OC1([H])[H],OXIRANEMETHANOL,Glycidol,oxiran-2-ylmethanol,6863,DTXSID4020666,OCC1CO1,"InChI=1S/C3H6O2/c4-1-3-2-5-3/h3-4H,1-2H2",CTKINSOISVBQLD-UHFFFAOYSA-N,?,,"DENEER,JW ET AL. (1988)",-0.95
102265,556-61-6,556-61-6,[H]C([H])([H])N=C=S,METHYL ISOTHIOCYANATE,Methyl isothiocyanate,isothiocyanatomethane,6864,DTXSID2027204,CN=C=S,InChI=1S/C2H3NS/c1-3-2-4/h1H3,LGDSHSYDSCRFAB-UHFFFAOYSA-N,?,,POMONA (1987),0.94
102266,556-67-2,556-67-2,[H]C([H])([H])[Si]1(C([H])([H])[H])O[Si](C([H])([H])[H])(C([H])([H])[H])O[Si](C([H])([H])[H])(C([H])([H])[H])O[Si](C([H])([H])[H])(C([H])([H])[H])O1,OCTAMETHYLTETRASILOXANE,Octamethylcyclotetrasiloxane,"2,2,4,4,6,6,8,8-octamethyl-1,3,5,7,2,4,6,8-tetroxatetrasilocane",6865,DTXSID7027205,C[Si]1(C)O[Si](C)(C)O[Si](C)(C)O[Si](C)(C)O1,"InChI=1S/C8H24O4Si4/c1-13(2)9-14(3,4)11-16(7,8)12-15(5,6)10-13/h1-8H3",HMMGMWAXVFQUOA-UHFFFAOYSA-N,?,,SEHSC (2009); average,6.74
102268,556-88-7,556-88-7,[H]/N=C(\N([H])[H])N([H])[N+](=O)[O-],NITROGUANIDINE,Nitroguanidine,1-nitroguanidinato,6867,DTXSID4024222,NC(=N)N[N+]([O-])=O,"InChI=1S/CH4N4O2/c2-1(3)4-5(6)7/h(H4,2,3,4)",IDCPFAYURAQKDZ-UHFFFAOYSA-N,?,,"HANSCH,C ET AL. (1995)",-0.89
102269,557-01-7,557-01-7,[H]C1=NC(=O)N([H])C([H])=C1[H],2-PYRIMIDONE,2(1H)-Pyrimidinone,1H-Pyrimidin-2-one,6868,DTXSID4060315,O=C1NC=CC=N1,"InChI=1S/C4H4N2O/c7-4-5-2-1-3-6-4/h1-3H,(H,5,6,7)",VTGOHKSTWXHQJK-UHFFFAOYSA-N,?,,"HANSCH,C ET AL. (1995)",-1.62
102270,557-17-5,557-17-5,[H]C([H])([H])OC([H])([H])C([H])([H])C([H])([H])[H],METHYL PROPYL ETHER,"Propane, 1-methoxy-",1-Methoxypropane,6869,DTXSID0074558,CCCOC,"InChI=1S/C4H10O/c1-3-4-5-2/h3-4H2,1-2H3",VNKYTQGIUYNRMY-UHFFFAOYSA-N,?,,"HANSCH,C ET AL. (1995)",1.21
102272,557-98-2,557-98-2,[H]C([H])=C(Cl)C([H])([H])[H],2-CHLOROPROPENE,"1-Propene, 2-chloro-",2-chloroprop-1-ene,6871,DTXSID4040262,CC(=C)Cl,"InChI=1S/C3H5Cl/c1-3(2)4/h1H2,2H3",PNLQPWWBHXMFCA-UHFFFAOYSA-N,?,,"HANSCH,C ET AL. (1995)",2.0
102273,558-13-4,558-13-4,BrC(Br)(Br)Br,CARBON TETRABROMIDE,Carbon tetrabromide,Tetrabromomethane,6872,DTXSID8060327,BrC(Br)(Br)Br,"InChI=1S/CBr4/c2-1(3,4)5",HJUGFYREWKUQJT-UHFFFAOYSA-N,?,,"HANSCH,C ET AL. (1995)",3.42
102274,558-25-8,558-25-8,[H]C([H])([H])S(=O)(=O)F,FLUOROMETHYL SULFONE,Methanesulfonyl fluoride,METHANESULFONYL FLUORIDE,6873,DTXSID8060329,CS(=O)(=O)F,"InChI=1S/CH3FO2S/c1-5(2,3)4/h1H3",KNWQLFOXPQZGPX-UHFFFAOYSA-N,?,,POMONA (1987),0.55
102277,561-86-4,561-86-4,[H]C([H])=C([H])C([H])([H])C1(C([H])([H])C(Br)=C([H])[H])C(=O)N([H])C(=O)N([H])C1=O,"BARBITURIC ACID,5-ALLYL-5(2BR ALLYL)",Brallobarbital,"5-(2-bromoprop-2-enyl)-5-prop-2-enyl-1,3-diazinane-2,4,6-trione",6875,DTXSID60204648,C=C(Br)CC1(CC=C)C(=O)NC(=O)NC1=O,"InChI=1S/C10H11BrN2O3/c1-3-4-10(5-6(2)11)7(14)12-9(16)13-8(10)15/h3H,1-2,4-5H2,(H2,12,13,14,15,16)",DYODAJAEQDVYFX-UHFFFAOYSA-N,?,,"HANSCH,C ET AL. (1995)",1.37
102278,562-26-5,NOCAS_862199,[H]OC([H])(C1=C([H])C([H])=C([H])C([H])=C1[H])C([H])([H])C([H])([H])N1C([H])([H])C([H])([H])C(C(=O)OC([H])([H])C([H])([H])[H])(C2=C([H])C([H])=C([H])C([H])=C2[H])C([H])([H])C1([H])[H],"4-PIPERIDINECARBOXYLIC ACID, 1-(3-HYDROXY-3-PHEN",,,6876,DTXSID90862199,CCOC(=O)C1(CCN(CCC(O)c2ccccc2)CC1)c1ccccc1,"InChI=1S/C23H29NO3/c1-2-27-22(26)23(20-11-7-4-8-12-20)14-17-24(18-15-23)16-13-21(25)19-9-5-3-6-10-19/h3-12,21,25H,2,13-18H2,1H3",IPOPQVVNCFQFRK-UHFFFAOYSA-N,?,,SANGSTER (1994),4.04
102279,562-74-3,562-74-3,[H]OC1(C([H])(C([H])([H])[H])C([H])([H])[H])C([H])([H])C([H])=C(C([H])([H])[H])C([H])([H])C1([H])[H],"3-Cyclohexen-1-ol, 4-methyl-1-(1-methylethyl)-",4-Methyl-1-(propan-2-yl)cyclohex-3-en-1-ol,4-methyl-1-(propan-2-yl)cyclohex-3-en-1-ol,6877,DTXSID4044824,CC(C)C1(O)CC=C(C)CC1,"InChI=1S/C10H18O/c1-8(2)10(11)6-4-9(3)5-7-10/h4,8,11H,5-7H2,1-3H3",WRYLYDPHFGVWKC-UHFFFAOYSA-N,?,,"GRIFFIN,S ET AL. (1999)",3.26
102282,563-80-4,563-80-4,[H]C([H])([H])C(=O)C([H])(C([H])([H])[H])C([H])([H])[H],3-METHYL-2-BUTANONE,3-Methyl-2-butanone,3-methylbutan-2-one,6879,DTXSID0022062,CC(C)C(C)=O,"InChI=1S/C5H10O/c1-4(2)5(3)6/h4H,1-3H3",SYBYTAAJFKOIEJ-UHFFFAOYSA-N,?,,"HANSCH,C ET AL. (1995)",0.84
102283,564-00-1|1464-53-5,1464-53-5,[H]C1([H])OC1([H])C1([H])OC1([H])[H],"1,2:3,4-DIEPOXYBUTANE, DIEPOXYBUTANE",dl-Diepoxybutane,"(2S,2'S)-2,2'-bioxirane",6880|7887,DTXSID0041307,C1OC1C1CO1,"InChI=1S/C4H6O2/c1-3(5-1)4-2-6-4/h3-4H,1-2H2",ZFIVKAOQEXOYFY-UHFFFAOYSA-N,?,,"HANSCH,C ET AL. (1995)",-0.52
102284,564-25-0,564-25-0,[H]OC1=C2C(=O)C3=C(O[H])C4(O[H])C(=O)C(C(=O)N([H])[H])=C(O[H])C([H])(N(C([H])([H])[H])C([H])([H])[H])C4([H])C([H])(O[H])C3([H])C([H])(C([H])([H])[H])C2=C([H])C([H])=C1[H],VIBRAMYCIN,Doxycycline,"(4S,4aR,5S,5aR,6R,12aS)-4-(dimethylamino)-3,5,10,12,12a-pentahydroxy-6-methyl-1,11-dioxo-1,4,4a,5,5a,6,11,12a-octahydrotetracene-2-carboxamide",6881,DTXSID0037653,CC1C2C(O)C3C(C(O)=C(C(N)=O)C(=O)C3(O)C(O)=C2C(=O)c2c1cccc2O)N(C)C,"InChI=1S/C22H24N2O8/c1-7-8-5-4-6-9(25)11(8)16(26)12-10(7)17(27)14-15(24(2)3)18(28)13(21(23)31)20(30)22(14,32)19(12)29/h4-7,10,14-15,17,25,27-29,32H,1-3H3,(H2,23,31)",JBIWCJUYHHGXTC-UHFFFAOYSA-N,?,,SANGSTER (1994),-0.02
102286,565-80-0,565-80-0,[H]C([H])([H])C([H])(C(=O)C([H])(C([H])([H])[H])C([H])([H])[H])C([H])([H])[H],"2,4-DIMETHYL-3-PENTANONE","2,4-Dimethylpentan-3-one","2,4-dimethylpentan-3-one",6883,DTXSID3038771,CC(C)C(=O)C(C)C,"InChI=1S/C7H14O/c1-5(2)7(8)6(3)4/h5-6H,1-4H3",HXVNBWAKAOHACI-UHFFFAOYSA-N,?,,"HANSCH,C ET AL. (1995)",1.86
102287,569-41-5,569-41-5,[H]C1=C([H])C2=C([H])C([H])=C([H])C(C([H])([H])[H])=C2C(C([H])([H])[H])=C1[H],"1,8-DIMETHYLNAPHTHALENE","1,8-Dimethylnaphthalene","1,8-DIMETHYLNAPHTHALENE",6884,DTXSID6060347,Cc1cccc2cccc(C)c12,"InChI=1S/C12H12/c1-9-5-3-7-11-8-4-6-10(2)12(9)11/h3-8H,1-2H3",XAABPYINPXYOLM-UHFFFAOYSA-N,?,,"HANSCH,C ET AL. (1995)",4.26
102289,569-64-2,569-64-2,[H]C1=C([H])C([H])=C(C(C2=C([H])C([H])=C(N(C([H])([H])[H])C([H])([H])[H])C([H])=C2[H])=C2C([H])=C([H])C(=[N+](C([H])([H])[H])C([H])([H])[H])C([H])=C2[H])C([H])=C1[H],MALACHITE GREEN,Malachite green,C23H25ClN2,6885,DTXSID1025512,CN(C)c1ccc(cc1)C(c1ccccc1)=C1C=CC(C=C1)=[N+](C)C,"InChI=1S/C23H25N2/c1-24(2)21-14-10-19(11-15-21)23(18-8-6-5-7-9-18)20-12-16-22(17-13-20)25(3)4/h5-17H,1-4H3/q+1",VFCNQNZNPKRXIT-UHFFFAOYSA-N,[Cl-],1,"HANSCH,C ET AL. (1995)",0.62
102291,571-60-8,571-60-8,[H]OC1=C([H])C([H])=C(O[H])C2=C([H])C([H])=C([H])C([H])=C12,"1,4-NAPHTHALENEDIOL","1,4-Naphthalenediol",,6887,DTXSID5060350,Oc1ccc(O)c2ccccc12,"InChI=1S/C10H8O2/c11-9-5-6-10(12)8-4-2-1-3-7(8)9/h1-6,11-12H",PCILLCXFKWDRMK-UHFFFAOYSA-N,?,,SANGSTER (1993),1.9
102292,571-61-9,571-61-9,[H]C1=C([H])C2=C(C([H])([H])[H])C([H])=C([H])C([H])=C2C(C([H])([H])[H])=C1[H],"1,5-DIMETHYLNAPHTHALENE","1,5-Dimethylnaphthalene","1,5-Dimethylnaphthalene",6888,DTXSID0060351,Cc1cccc2c1cccc2C,"InChI=1S/C12H12/c1-9-5-3-8-12-10(2)6-4-7-11(9)12/h3-8H,1-2H3",SDDBCEWUYXVGCQ-UHFFFAOYSA-N,?,,"HANSCH,C ET AL. (1995)",4.38
102293,573-56-8,573-56-8,[H]OC1=C([N+](=O)[O-])C([H])=C([H])C([H])=C1[N+](=O)[O-],"2,6-DINITROPHENOL","2,6-Dinitrophenol","2,6-dinitrophenol",6889,DTXSID5022063,[O-][N+](=O)c1cccc(c1O)[N+]([O-])=O,"InChI=1S/C6H4N2O5/c9-6-4(7(10)11)2-1-3-5(6)8(12)13/h1-3,9H",JCRIDWXIBSEOEG-UHFFFAOYSA-N,?,,"HANSCH,C ET AL. (1995)",1.37
102295,574-66-3,574-66-3,[H]C1=C([H])C([H])=C(C([H])(N=O)C2=C([H])C([H])=C([H])C([H])=C2[H])C([H])=C1[H],"METHANONE, DIPHENYL-, OXIME","Methanone, diphenyl-, oxime",N-[di(phenyl)methylidene]hydroxylamine,6891,DTXSID0060355,O=NC(c1ccccc1)c1ccccc1,"InChI=1S/C13H11NO/c15-14-13(11-7-3-1-4-8-11)12-9-5-2-6-10-12/h1-10,13H",HFIJNEVWEHTIIL-UHFFFAOYSA-N,?,,POMONA (1987),3.2
102296,575-37-1,575-37-1,[H]C1=C([H])C(C([H])([H])[H])=C2C([H])=C(C([H])([H])[H])C([H])=C([H])C2=C1[H],"1,7-DIMETHYLNAPHTHALENE","1,7-Dimethylnaphthalene","1,7-Dimethylnaphthalene",6892,DTXSID7073197,Cc1cc2c(cc1)cccc2C,"InChI=1S/C12H12/c1-9-6-7-11-5-3-4-10(2)12(11)8-9/h3-8H,1-2H3",SPUWFVKLHHEKGV-UHFFFAOYSA-N,?,,"HANSCH,C ET AL. (1995)",4.44
102297,575-38-2,575-38-2,[H]OC1=C([H])C2=C(C([H])=C([H])C([H])=C2O[H])C([H])=C1[H],"NAPTHALENE-1,7-DIOL","Napthalene-1,7-diol","Naphthalene-1,7-diol",6893,DTXSID0060359,Oc1cc2c(cc1)cccc2O,"InChI=1S/C10H8O2/c11-8-5-4-7-2-1-3-10(12)9(7)6-8/h1-6,11-12H",ZUVBIBLYOCVYJU-UHFFFAOYSA-N,?,,"HANSCH,C ET AL. (1995)",1.94
102299,576-24-9,576-24-9,[H]OC1=C(Cl)C(Cl)=C([H])C([H])=C1[H],"2,3-DICHLOROPHENOL","2,3-Dichlorophenol","2,3-dichlorophenol",6895,DTXSID7025001,Oc1cccc(Cl)c1Cl,"InChI=1S/C6H4Cl2O/c7-4-2-1-3-5(9)6(4)8/h1-3,9H",UMPSXRYVXUPCOS-UHFFFAOYSA-N,?,,"HANSCH,C ET AL. (1995)",2.84
102300,576-26-1,576-26-1,[H]OC1=C(C([H])([H])[H])C([H])=C([H])C([H])=C1C([H])([H])[H],"2,6-DIMETHYLPHENOL","2,6-Dimethylphenol","2,6-dimethylphenol",6896,DTXSID9024063,Cc1cccc(C)c1O,"InChI=1S/C8H10O/c1-6-4-3-5-7(2)8(6)9/h3-5,9H,1-2H3",NXXYKOUNUYWIHA-UHFFFAOYSA-N,?,,"HANSCH,C ET AL. (1995)",2.36
102301,577-19-5,577-19-5,[H]C1=C([H])C([H])=C([N+](=O)[O-])C(Br)=C1[H],O-BROMONITROBENZENE,o-Bromonitrobenzene,1-Bromo-2-nitrobenzene,6897,DTXSID9060364,[O-][N+](=O)c1ccccc1Br,InChI=1S/C6H4BrNO2/c7-5-3-1-2-4-6(5)8(9)10/h1-4H,ORPVVAKYSXQCJI-UHFFFAOYSA-N,?,,"HANSCH,C ET AL. (1995)",2.52
102303,577-59-3,577-59-3,[H]C1=C([H])C(C(=O)C([H])([H])[H])=C([N+](=O)[O-])C([H])=C1[H],2-NITROACETOPHENONE,2-Nitroacetophenone,1-(2-nitrophenyl)ethanone,6899,DTXSID6025723,CC(=O)c1ccccc1[N+]([O-])=O,"InChI=1S/C8H7NO3/c1-6(10)7-4-2-3-5-8(7)9(11)12/h2-5H,1H3",SUGXZLKUDLDTKX-UHFFFAOYSA-N,?,,"HANSCH,C ET AL. (1995)",1.28
102304,578-06-3,578-06-3,[H]C1=C([H])C([H])=C(N([H])[H])C2=C([H])C3=C([H])C([H])=C([H])C([H])=C3N=C12,1-AMINOACRIDINE,,,6900,DTXSID40870623,Nc1cccc2[n]c3ccccc3cc21,"InChI=1S/C13H10N2/c14-11-5-3-7-13-10(11)8-9-4-1-2-6-12(9)15-13/h1-8H,14H2",LOMMDWBTANPFEJ-UHFFFAOYSA-N,?,,"HANSCH,C ET AL. (1995)",2.47
102305,578-07-4,578-07-4,[H]C1=C([H])C([H])=C([H])C2=C([H])C3=C([H])C([H])=C([H])C(N([H])[H])=C3N=C12,4-AMINOACRIDINE,4-Aminoacridine,acridin-4-amine,6901,DTXSID80206487,Nc1cccc2cc3ccccc3[n]c21,"InChI=1S/C13H10N2/c14-11-6-3-5-10-8-9-4-1-2-7-12(9)15-13(10)11/h1-8H,14H2",QWAGALBSTFENEE-UHFFFAOYSA-N,?,,"HANSCH,C ET AL. (1995)",3.26
102307,578-57-4,578-57-4,[H]C1=C([H])C([H])=C(OC([H])([H])[H])C(Br)=C1[H],1-BROMO-2-METHOXYBENZENE,"Benzene, 1-bromo-2-methoxy-",1-Bromo-2-methoxybenzene,6903,DTXSID4060367,COc1ccccc1Br,"InChI=1S/C7H7BrO/c1-9-7-5-3-2-4-6(7)8/h2-5H,1H3",HTDQSWDEWGSAMN-UHFFFAOYSA-N,?,,"NAKAGAWA,Y ET AL. (1992)",2.86
102308,578-58-5,578-58-5,[H]C1=C([H])C([H])=C(C([H])([H])[H])C(OC([H])([H])[H])=C1[H],2-METHYLANISOLE,"Benzene, 1-methoxy-2-methyl-",1-Methoxy-2-methylbenzene,6904,DTXSID9060368,Cc1ccccc1OC,"InChI=1S/C8H10O/c1-7-5-3-4-6-8(7)9-2/h3-6H,1-2H3",DTFKRVXLBCAIOZ-UHFFFAOYSA-N,?,,"HANSCH,C ET AL. (1995)",2.74
102309,578-66-5,578-66-5,[H]C1=C([H])C([H])=C2C(=N1)C(N([H])[H])=C([H])C([H])=C2[H],8-AMINOQUINOLINE,8-Quinolinamine,quinolin-8-amine,6905,DTXSID4060369,Nc1cccc2ccc[n]c21,"InChI=1S/C9H8N2/c10-8-5-1-3-7-4-2-6-11-9(7)8/h1-6H,10H2",WREVVZMUNPAPOV-UHFFFAOYSA-N,?,,"HANSCH,C ET AL. (1995)",1.79
102311,578-68-7,578-68-7,[H]C1=NC2=C([H])C([H])=C([H])C([H])=C2C(N([H])[H])=C1[H],4-AMINOQUINOLINE,4-Aminoquinoline,quinolin-4-amine,6907,DTXSID70206491,Nc1cc[n]c2ccccc21,"InChI=1S/C9H8N2/c10-8-5-6-11-9-4-2-1-3-7(8)9/h1-6H,(H2,10,11)",FQYRLEXKXQRZDH-UHFFFAOYSA-N,?,,"HANSCH,C ET AL. (1995)",1.63
102312,578-96-1,578-96-1,[H]C1=C([H])C([H])=C([H])N2C(=O)C3=C([H])C([H])=C([H])C([H])=C3N=C12,"11H-PYRIDO[2,1-B]QUINAZOLIN-11-ONE","11H-Pyrido(2,1-b)quinazolin-11-one","pyrido[2,1-b]quinazolin-11-one",6908,DTXSID50206494,O=C1c2ccccc2N=C2C=CC=CN21,InChI=1S/C12H8N2O/c15-12-9-5-1-2-6-10(9)13-11-7-3-4-8-14(11)12/h1-8H,MONJTOUXCWKOFS-UHFFFAOYSA-N,?,,SANGSTER (1994),2.08
102313,579-10-2,579-10-2,[H]C1=C([H])C([H])=C(N(C(=O)C([H])([H])[H])C([H])([H])[H])C([H])=C1[H],N-METHYLACETANILIDE,"Acetamide, N-methyl-N-phenyl-",N-Methyl-N-phenylacetamide,6909,DTXSID8060373,CC(=O)N(C)c1ccccc1,"InChI=1S/C9H11NO/c1-8(11)10(2)9-6-4-3-5-7-9/h3-7H,1-2H3",LMTGCJANOQOGPI-UHFFFAOYSA-N,?,,"HANSCH,C ET AL. (1995)",1.12
102315,579-43-1,2325-10-2,[H]OC([H])(C1=C([H])C([H])=C([H])C([H])=C1[H])C([H])(O[H])C1=C([H])C([H])=C([H])C([H])=C1[H],MESO-HYDROBENZOIN,"(S,S)-(-)-Hydrobenzoin",C14H14O2,6911,DTXSID00357389,OC(C(O)c1ccccc1)c1ccccc1,"InChI=1S/C14H14O2/c15-13(11-7-3-1-4-8-11)14(16)12-9-5-2-6-10-12/h1-10,13-16H",IHPDTPWNFBQHEB-UHFFFAOYSA-N,?,,"HANSCH,C ET AL. (1995)",1.91
102316,579-45-3,579-45-3,[H]C1=C([H])C([H])=C(C(=O)N(C2=C([H])C([H])=C([H])C([H])=C2[H])N([H])[H])C([H])=C1[H],N-Benzoyl-N-phenylhydrazine,N-phenylbenzohydrazide,C13H12N2O,6912,DTXSID40302090,NN(C(=O)c1ccccc1)c1ccccc1,"InChI=1S/C13H12N2O/c14-15(12-9-5-2-6-10-12)13(16)11-7-3-1-4-8-11/h1-10H,14H2",LACXDWHPYQPMCP-UHFFFAOYSA-N,?,,"BRITTO,MM ET AL. (1999)",2.3
102317,579-58-8,579-58-8,[H]OC1=C([H])C([H])=C(N(C(=O)C([H])([H])[H])C([H])([H])[H])C([H])=C1[H],N-METHYL P-HYDROXYACETANILIDE,,,6913,DTXSID10879507,CC(=O)N(C)c1ccc(O)cc1,"InChI=1S/C9H11NO2/c1-7(11)10(2)8-3-5-9(12)6-4-8/h3-6,12H,1-2H3",STOAGEBURGENGQ-UHFFFAOYSA-N,?,,"HANSCH,C ET AL. (1995)",0.61
102319,579-75-9,579-75-9,[H]OC(=O)C1=C(OC([H])([H])[H])C([H])=C([H])C([H])=C1[H],O-METHOXYBENZOIC ACID,"Benzoic acid, 2-methoxy-",2-Methoxybenzoic acid,6915,DTXSID3060376,COc1ccccc1C(O)=O,"InChI=1S/C8H8O3/c1-11-7-5-3-2-4-6(7)8(9)10/h2-5H,1H3,(H,9,10)",ILUJQPXNXACGAN-UHFFFAOYSA-N,?,,"HANSCH,C ET AL. (1995)",1.59
102320,579-93-1,579-93-1,[H]OC(=O)C1=C([H])C([H])=C([H])C([H])=C1N([H])C(=O)C1=C([H])C([H])=C([H])C([H])=C1[H],N-BENZOYLANTHRANILIC ACID,N-Benzoylanthranilic acid,2-(Benzoylamino)benzoic acid,6916,DTXSID40206620,OC(=O)c1ccccc1NC(=O)c1ccccc1,"InChI=1S/C14H11NO3/c16-13(10-6-2-1-3-7-10)15-12-9-5-4-8-11(12)14(17)18/h1-9H,(H,15,16)(H,17,18)",WXVLIIDDWFGYCV-UHFFFAOYSA-N,?,,BIOBYTE STARLIST (2009),3.54
102321,580-02-9,580-02-9,[H]C1=C([H])C([H])=C(C(=O)OC([H])([H])[H])C(OC(=O)C([H])([H])[H])=C1[H],"ACETYLSALICYLIC ACID, METHYL ESTER",Aspirin methyl ester,methyl 2-acetyloxybenzoate,6917,DTXSID20206724,CC(=O)Oc1ccccc1C(=O)OC,"InChI=1S/C10H10O4/c1-7(11)14-9-6-4-3-5-8(9)10(12)13-2/h3-6H,1-2H3",ONWPLBKWMAUFGZ-UHFFFAOYSA-N,?,,"HANSCH,C ET AL. (1995)",1.46
102323,580-16-5,580-16-5,[H]OC1=C([H])C2=C(N=C([H])C([H])=C2[H])C([H])=C1[H],6-HDROXYQUINOLINE,6-Hydroxyquinoline,Quinolin-6-ol,6919,DTXSID40206726,Oc1cc2ccc[n]c2cc1,"InChI=1S/C9H7NO/c11-8-3-4-9-7(6-8)2-1-5-10-9/h1-6,11H",OVYWMEWYEJLIER-UHFFFAOYSA-N,?,,"HANSCH,C ET AL. (1995)",1.8
102324,580-17-6,580-17-6,[H]C1=NC2=C([H])C([H])=C([H])C([H])=C2C([H])=C1N([H])[H],3-AMINOQUINOLINE,3-Quinolinamine,quinolin-3-amine,6920,DTXSID8060379,Nc1cc2ccccc2[n]c1,"InChI=1S/C9H8N2/c10-8-5-7-3-1-2-4-9(7)11-6-8/h1-6H,10H2",SVNCRRZKBNSMIV-UHFFFAOYSA-N,?,,"HANSCH,C ET AL. (1995)",1.63
102325,580-18-7,580-18-7,[H]OC1=C([H])N=C2C([H])=C([H])C([H])=C([H])C2=C1[H],3-QUINOLINOL,3-Hydroxyquinoline,Quinolin-3-ol,6921,DTXSID00206727,Oc1cc2ccccc2[n]c1,"InChI=1S/C9H7NO/c11-8-5-7-3-1-2-4-9(7)10-6-8/h1-6,11H",IQQDNMHUOLMLNJ-UHFFFAOYSA-N,?,,"HANSCH,C ET AL. (1995)",2.08
102327,580-22-3,580-22-3,[H]C1=C([H])C2=C([H])C([H])=C([H])C([H])=C2N=C1N([H])[H],2-AMINOQUINOLINE,2-Quinolinamine,quinolin-2-amine,6923,DTXSID2060381,Nc1ccc2ccccc2[n]1,"InChI=1S/C9H8N2/c10-9-6-5-7-3-1-2-4-8(7)11-9/h1-6H,(H2,10,11)",GCMNJUJAKQGROZ-UHFFFAOYSA-N,?,,"HANSCH,C ET AL. (1995)",1.87
102328,580-51-8,580-51-8,[H]OC1=C([H])C(C2=C([H])C([H])=C([H])C([H])=C2[H])=C([H])C([H])=C1[H],3-PHENYLPHENOL,3-Phenylphenol,biphenyl-3-ol,6924,DTXSID2022462,Oc1cc(ccc1)-c1ccccc1,"InChI=1S/C12H10O/c13-12-8-4-7-11(9-12)10-5-2-1-3-6-10/h1-9,13H",UBXYXCRCOKCZIT-UHFFFAOYSA-N,?,,"HANSCH,C ET AL. (1995)",3.23
102329,581-08-8,581-08-8,[H]C1=C([H])C([H])=C(N([H])C(=O)C([H])([H])[H])C(OC([H])([H])C([H])([H])[H])=C1[H],"ACETAMIDE, N-(2-ETHOXYPHENYL)-","Acetamide, N-(2-ethoxyphenyl)-",N-(2-Ethoxyphenyl)acetamide,6925,DTXSID7060382,CC(=O)Nc1ccccc1OCC,"InChI=1S/C10H13NO2/c1-3-13-10-7-5-4-6-9(10)11-8(2)12/h4-7H,3H2,1-2H3,(H,11,12)",SQRTWLGWCOJOTO-UHFFFAOYSA-N,?,,POMONA (1987),1.49
102331,581-29-3,581-29-3,[H]C1=C([H])C([H])=C([H])C2=C([H])C3=C([H])C([H])=C(N([H])[H])C([H])=C3N=C12,3-AMINOACRIDINE,3-Aminoacridine,acridin-3-amine,6927,DTXSID10206819,Nc1cc2[n]c3ccccc3cc2cc1,"InChI=1S/C13H10N2/c14-11-6-5-10-7-9-3-1-2-4-12(9)15-13(10)8-11/h1-8H,14H2",GHCKERHPOQWERJ-UHFFFAOYSA-N,?,,"HANSCH,C ET AL. (1995)",2.77
102332,581-40-8,581-40-8,[H]C1=C([H])C([H])=C2C([H])=C(C([H])([H])[H])C(C([H])([H])[H])=C([H])C2=C1[H],"2,3-DIMETHYLNAPHTHALENE","2,3-Dimethylnaphthalene","2,3-Dimethylnaphthalene",6928,DTXSID2060383,Cc1cc2ccccc2cc1C,"InChI=1S/C12H12/c1-9-7-11-5-3-4-6-12(11)8-10(9)2/h3-8H,1-2H3",WWGUMAYGTYQSGA-UHFFFAOYSA-N,?,,"HANSCH,C ET AL. (1995)",4.4