ChemID,source_casrn,CAS,SMILES,NAME,preferred_name,iupac,MPID,dsstox_substance_id,Canonical_QSARr,InChI_Code_QSARr,InChI Key_QSARr,Salt_Solvent,Salt_Solvent_ID,Kow Reference,LogP
100462,78-67-1,78-67-1,[H]C([H])([H])C(C#N)(/N=N/C(C#N)(C([H])([H])[H])C([H])([H])[H])C([H])([H])[H],"2,2'-Azobis(2-methylpropionitrile)","2,2'-Azobis(2-methylpropanenitrile)","2,2'-(E)-diazene-1,2-diylbis(2-methylpropanenitrile)",5113,DTXSID1026457,CC(C)(C#N)N=NC(C)(C)C#N,"InChI=1S/C8H12N4/c1-7(2,5-9)11-12-8(3,4)6-10/h1-4H3/b12-11+",OZAIFHULBGXAKX-VAWYXSNFSA-N,?,,Revised OECD HPV Form 1 (1997),1.1
100464,78-79-5,78-79-5,[H]C([H])=C([H])C(=C([H])[H])C([H])([H])[H],"2-METHYL-1,3-BUTADIENE",Isoprene,"2-methylbuta-1,3-diene",5115,DTXSID2020761,CC(=C)C=C,"InChI=1S/C5H8/c1-4-5(2)3/h4H,1-2H2,3H3",RRHGJUQNOFWUDK-UHFFFAOYSA-N,?,,CHEMICALS INSPECTION AND TESTING INSTITU (1992),2.42
100465,78-81-9,78-81-9,[H]N([H])C([H])([H])C([H])(C([H])([H])[H])C([H])([H])[H],ISOBUTYLAMINE,Isobutylamine,2-methylpropan-1-amine,5116,DTXSID9025459,CC(C)CN,"InChI=1S/C4H11N/c1-4(2)3-5/h4H,3,5H2,1-2H3",KDSNLYIMUZNERS-UHFFFAOYSA-N,?,,"HANSCH,C ET AL. (1995)",0.73
100466,78-82-0,78-82-0,[H]C([H])([H])C([H])(C#N)C([H])([H])[H],2-METHYLPROPANENITRILE,2-Methylpropanenitrile,2-methylpropanenitrile,5117,DTXSID5026461,CC(C)C#N,"InChI=1S/C4H7N/c1-4(2)3-5/h4H,1-2H3",LRDFRRGEGBBSRN-UHFFFAOYSA-N,?,,"TANII,H & HASHIMOTO,K (1984)",0.46
100468,78-86-4,78-86-4,[H]C([H])([H])C([H])([H])C([H])(Cl)C([H])([H])[H],2-CHLOROBUTANE,2-Chlorobutane,2-chlorobutane,5119,DTXSID9023966,CCC(C)Cl,"InChI=1S/C4H9Cl/c1-3-4(2)5/h4H,3H2,1-2H3",BSPCSKHALVHRSR-UHFFFAOYSA-N,?,,"HANSCH,C ET AL. (1995)",2.33
100469,78-87-5,78-87-5,[H]C([H])([H])C([H])(Cl)C([H])([H])Cl,"1,2-DICHLOROPROPANE","1,2-Dichloropropane","1,2-dichloropropane",5120,DTXSID0020448,CC(Cl)CCl,"InChI=1S/C3H6Cl2/c1-3(5)2-4/h3H,2H2,1H3",KNKRKFALVUDBJE-UHFFFAOYSA-N,?,,SANGSTER (1994),1.98
100470,78-92-2,78-92-2,[H]OC([H])(C([H])([H])[H])C([H])([H])C([H])([H])[H],2-BUTANOL,2-Butanol,butan-2-ol,5121,DTXSID9021762,CCC(C)O,"InChI=1S/C4H10O/c1-3-4(2)5/h4-5H,3H2,1-2H3",BTANRVKWQNVYAZ-UHFFFAOYSA-N,?,,"HANSCH,C ET AL. (1995)",0.61
100472,78-96-6,78-96-6,[H]OC([H])(C([H])([H])[H])C([H])([H])N([H])[H],1-AMINO-2-PROPANOL,1-Amino-2-propanol,1-aminopropan-2-ol,5123,DTXSID9021764,CC(O)CN,"InChI=1S/C3H9NO/c1-3(5)2-4/h3,5H,2,4H2,1H3",HXKKHQJGJAFBHI-UHFFFAOYSA-N,?,,"HANSCH,C ET AL. (1995)",-0.96
100473,78-97-7,78-97-7,[H]OC([H])(C#N)C([H])([H])[H],2-HYDROXYPROPANENITRILE,Lactonitrile,2-hydroxypropanenitrile,5124,DTXSID6025432,CC(O)C#N,"InChI=1S/C3H5NO/c1-3(5)2-4/h3,5H,1H3",WOFDVDFSGLBFAC-UHFFFAOYSA-N,?,,"TANII,H & HASHIMOTO,K (1985)",-0.94
100474,79-00-5,79-00-5,[H]C([H])(Cl)C([H])(Cl)Cl,"1,1,2-TRICHLOROETHANE","1,1,2-Trichloroethane","1,1,2-trichloroethane",5125,DTXSID5021380,ClCC(Cl)Cl,"InChI=1S/C2H3Cl3/c3-1-2(4)5/h2H,1H2",UBOXGVDOUJQMTN-UHFFFAOYSA-N,?,,"HANSCH,C ET AL. (1995)",1.89
100476,79-05-0,79-05-0,[H]N([H])C(=O)C([H])([H])C([H])([H])[H],PROPRIONAMIDE,Propanamide,Propanamide,5127,DTXSID3058820,CCC(N)=O,"InChI=1S/C3H7NO/c1-2-3(4)5/h2H2,1H3,(H2,4,5)",QLNJFJADRCOGBJ-UHFFFAOYSA-N,?,,"HANSCH,C ET AL. (1995)",-0.66
100477,79-06-1,79-06-1,[H]C([H])=C([H])C(=O)N([H])[H],ACRYLAMIDE,Acrylamide,prop-2-enamide,5128,DTXSID5020027,C=CC(N)=O,"InChI=1S/C3H5NO/c1-2-3(4)5/h2H,1H2,(H2,4,5)",HRPVXLWXLXDGHG-UHFFFAOYSA-N,?,,"HANSCH,C ET AL. (1995)",-0.67
100478,79-07-2,79-07-2,[H]N([H])C(=O)C([H])([H])Cl,CHLOROACETAMIDE,Chloroacetamide,C2H4ClNO,5129,DTXSID9041570,NC(=O)CCl,"InChI=1S/C2H4ClNO/c3-1-2(4)5/h1H2,(H2,4,5)",VXIVSQZSERGHQP-UHFFFAOYSA-N,?,,"HANSCH,C ET AL. (1995)",-0.53
100480,79-09-4,79-09-4,[H]OC(=O)C([H])([H])C([H])([H])[H],PROPIONIC ACID,Propionic acid,propanoic acid,5131,DTXSID8025961,CCC(O)=O,"InChI=1S/C3H6O2/c1-2-3(4)5/h2H2,1H3,(H,4,5)",XBDQKXXYIPTUBI-UHFFFAOYSA-N,?,,"HANSCH,C ET AL. (1995)",0.33
100481,79-10-7,79-10-7,[H]OC(=O)C([H])=C([H])[H],ACRYLIC ACID,Acrylic acid,prop-2-enoic acid,5132,DTXSID0039229,C=CC(O)=O,"InChI=1S/C3H4O2/c1-2-3(4)5/h2H,1H2,(H,4,5)",NIXOWILDQLNWCW-UHFFFAOYSA-N,?,,"HANSCH,C ET AL. (1995)",0.35
100482,79-11-8,79-11-8,[H]OC(=O)C([H])([H])Cl,CHLOROACETIC ACID,Chloroacetic acid,chloroacetic acid,5133,DTXSID4020901,OC(=O)CCl,"InChI=1S/C2H3ClO2/c3-1-2(4)5/h1H2,(H,4,5)",FOCAUTSVDIKZOP-UHFFFAOYSA-N,?,,"HANSCH,C ET AL. (1995)",0.22
100484,79-16-3,79-16-3,[H]N(C(=O)C([H])([H])[H])C([H])([H])[H],N-METHYLACETAMIDE,N-Methylacetamide,N-methylacetamide,5135,DTXSID0047167,CNC(C)=O,"InChI=1S/C3H7NO/c1-3(5)4-2/h1-2H3,(H,4,5)",OHLUUHNLEMFGTQ-UHFFFAOYSA-N,?,,"HANSCH,C ET AL. (1995)",-1.05
100485,79-20-9,79-20-9,[H]C([H])([H])OC(=O)C([H])([H])[H],METHYL ACETATE,Methyl acetate,methyl acetate,5136,DTXSID4021767,COC(C)=O,InChI=1S/C3H6O2/c1-3(4)5-2/h1-2H3,KXKVLQRXCPHEJC-UHFFFAOYSA-N,?,,"HANSCH,C ET AL. (1995)",0.18
100486,79-24-3,79-24-3,[H]C([H])([H])C([H])([H])[N+](=O)[O-],NITROETHANE,Nitroethane,nitroethane,5137,DTXSID8020969,CC[N+]([O-])=O,"InChI=1S/C2H5NO2/c1-2-3(4)5/h2H2,1H3",MCSAJNNLRCFZED-UHFFFAOYSA-N,?,,"HANSCH,C ET AL. (1995)",0.18
100488,79-31-2,79-31-2,[H]OC(=O)C([H])(C([H])([H])[H])C([H])([H])[H],ISOBUTYRIC ACID,2-Methylpropanoic acid,2-methylpropanoic acid,5139,DTXSID4021636,CC(C)C(O)=O,"InChI=1S/C4H8O2/c1-3(2)4(5)6/h3H,1-2H3,(H,5,6)",KQNPFQTWMSNSAP-UHFFFAOYSA-N,?,,SANGSTER (1993),0.94
100489,79-34-5,79-34-5,[H]C(Cl)(Cl)C([H])(Cl)Cl,"1,1,2,2-TETRACHLOROETHANE","1,1,2,2-Tetrachloroethane","1,1,2,2-tetrachloroethane",5140,DTXSID7021318,ClC(Cl)C(Cl)Cl,InChI=1S/C2H2Cl4/c3-1(4)2(5)6/h1-2H,QPFMBZIOSGYJDE-UHFFFAOYSA-N,?,,"HANSCH,C ET AL. (1995)",2.39
100490,79-39-0,79-39-0,[H]C([H])=C(C(=O)N([H])[H])C([H])([H])[H],Methacrylamide,Methacrylamide,2-methylprop-2-enamide,5141,DTXSID8029600,CC(=C)C(N)=O,"InChI=1S/C4H7NO/c1-3(2)4(5)6/h1H2,2H3,(H2,5,6)",FQPSGWSUVKBHSU-UHFFFAOYSA-N,?,,"RORIJE,E ET AL. (1997)",-1.11
100492,79-43-6,79-43-6,[H]OC(=O)C([H])(Cl)Cl,DICHLOROACETIC ACID,Dichloroacetic acid,dichloroacetic acid,5143,DTXSID2020428,OC(=O)C(Cl)Cl,"InChI=1S/C2H2Cl2O2/c3-1(4)2(5)6/h1H,(H,5,6)",JXTHNDFMNIQAHM-UHFFFAOYSA-N,?,,"HANSCH,C ET AL. (1995)",0.92
100493,79-46-9,79-46-9,[H]C([H])([H])C([H])([N+](=O)[O-])C([H])([H])[H],2-NITROPROPANE,2-Nitropropane,2-nitropropane,5144,DTXSID6020981,CC(C)[N+]([O-])=O,"InChI=1S/C3H7NO2/c1-3(2)4(5)6/h3H,1-2H3",FGLBSLMDCBOPQK-UHFFFAOYSA-N,?,,CHEMICALS INSPECTION AND TESTING INSTITU (1992),0.93
100494,79-57-2,79-57-2,[H]OC1=C2C(=O)C3=C(O[H])C4(O[H])C(=O)C(C(=O)N([H])[H])=C(O[H])C([H])(N(C([H])([H])[H])C([H])([H])[H])C4([H])C([H])(O[H])C3([H])C(O[H])(C([H])([H])[H])C2=C([H])C([H])=C1[H],OXYTETRACYLCINE,Oxytetracycline,"(4S,4aR,5S,5aR,6S,12aS)-4-(dimethylamino)-3,5,6,10,12,12a-hexahydroxy-6-methyl-1,11-dioxo-1,4,4a,5,5a,6,11,12a-octahydrotetracene-2-carboxamide",5145,DTXSID1034260,CC1(O)C2C(O)C3C(C(O)=C(C(N)=O)C(=O)C3(O)C(O)=C2C(=O)c2c1cccc2O)N(C)C,"InChI=1S/C22H24N2O9/c1-21(32)7-5-4-6-8(25)9(7)15(26)10-12(21)17(28)13-14(24(2)3)16(27)11(20(23)31)19(30)22(13,33)18(10)29/h4-6,12-14,17,25,27-29,32-33H,1-3H3,(H2,23,31)",IWVCMVBTMGNXQD-UHFFFAOYSA-N,?,,SANGSTER (1994),-0.9
100497,80-08-0,80-08-0,[H]C1=C([H])C(S(=O)(=O)C2=C([H])C([H])=C(N([H])[H])C([H])=C2[H])=C([H])C([H])=C1N([H])[H],DI(P-AMINOPHENYL)SULFONE,Dapsone,"4,4'-sulfonyldianiline",5147,DTXSID4020371,Nc1ccc(cc1)S(=O)(=O)c1ccc(N)cc1,"InChI=1S/C12H12N2O2S/c13-9-1-5-11(6-2-9)17(15,16)12-7-3-10(14)4-8-12/h1-8H,13-14H2",MQJKPEGWNLWLTK-UHFFFAOYSA-N,?,,"HANSCH,C ET AL. (1995)",0.97
100498,80-11-5,80-11-5,[H]C1=C([H])C(S(=O)(=O)N(N=O)C([H])([H])[H])=C([H])C([H])=C1C([H])([H])[H],"BENZENESULFONAMIDE, N,4-DIMETHYL-N-NITROSO-","Benzenesulfonamide, N,4-dimethyl-N-nitroso-","N,4-dimethyl-N-nitrosobenzenesulfonamide",5148,DTXSID8058827,Cc1ccc(cc1)S(=O)(=O)N(C)N=O,"InChI=1S/C8H10N2O3S/c1-7-3-5-8(6-4-7)14(12,13)10(2)9-11/h3-6H,1-2H3",FFKZOUIEAHOBHW-UHFFFAOYSA-N,?,,"HANSCH,C ET AL. (1995)",0.58
100499,80-17-1,80-17-1,[H]C1=C([H])C([H])=C(S(=O)(=O)N([H])N([H])[H])C([H])=C1[H],BENZENESULFONIC ACID HYDRAZIDE,Benzenesulfonyl hydrazide,benzenesulfonohydrazide,5149,DTXSID0052548,NNS(=O)(=O)c1ccccc1,"InChI=1S/C6H8N2O2S/c7-8-11(9,10)6-4-2-1-3-5-6/h1-5,8H,7H2",VJRITMATACIYAF-UHFFFAOYSA-N,?,,"HANSCH,C ET AL. (1995)",-0.14
100501,80-35-3,80-35-3,[H]C1=C(OC([H])([H])[H])N=NC(N([H])S(=O)(=O)C2=C([H])C([H])=C(N([H])[H])C([H])=C2[H])=C1[H],SULFAMETHOXYPYRIDAZINE,Sulfamethoxypyridazine,4-amino-N-(6-methoxypyridazin-3-yl)benzenesulfonamide,5151,DTXSID5023611,COc1ccc(NS(=O)(=O)c2ccc(N)cc2)[n][n]1,"InChI=1S/C11H12N4O3S/c1-18-11-7-6-10(13-14-11)15-19(16,17)9-4-2-8(12)3-5-9/h2-7H,12H2,1H3,(H,13,15)",VLYWMPOKSSWJAL-UHFFFAOYSA-N,?,,"HANSCH,C ET AL. (1995)",0.32
100502,80-40-0,80-40-0,[H]C1=C([H])C(S(=O)(=O)OC([H])([H])C([H])([H])[H])=C([H])C([H])=C1C([H])([H])[H],ETHYL-P-METHYLBENZENESULFONATE,"Benzenesulfonic acid, 4-methyl-, ethyl ester",ethyl 4-methylbenzenesulfonate,5152,DTXSID2058833,Cc1ccc(cc1)S(=O)(=O)OCC,"InChI=1S/C9H12O3S/c1-3-12-13(10,11)9-6-4-8(2)5-7-9/h4-7H,3H2,1-2H3",VRZVPALEJCLXPR-UHFFFAOYSA-N,?,,"HANSCH,C ET AL. (1995)",1.81
100503,80-43-3,80-43-3,[H]C1=C([H])C([H])=C(C(OOC(C2=C([H])C([H])=C([H])C([H])=C2[H])(C([H])([H])[H])C([H])([H])[H])(C([H])([H])[H])C([H])([H])[H])C([H])=C1[H],"PEROXIDE, BIS(1-METHYL-1-PHENYLETHYL)",Dicumyl peroxide,bis(2-phenylpropan-2-yl) peroxide,5153,DTXSID1025017,CC(C)(OOC(C)(C)c1ccccc1)c1ccccc1,"InChI=1S/C18H22O2/c1-17(2,15-11-7-5-8-12-15)19-20-18(3,4)16-13-9-6-10-14-16/h5-14H,1-4H3",XMNIXWIUMCBBBL-UHFFFAOYSA-N,?,,CHEMICALS INSPECTION AND TESTING INSTITU (1992),5.5
100505,80-58-0,32659-49-7,[H]OC(=O)C([H])(Br)C([H])([H])C([H])([H])[H],A-BROMOBUTYRIC ACID,"alpha-Bromobutyric acid, (S)-",(2S)-2-bromobutanoic acid,5155,DTXSID40186332,CCC(Br)C(O)=O,"InChI=1S/C4H7BrO2/c1-2-3(5)4(6)7/h3H,2H2,1H3,(H,6,7)",YAQLSKVCTLCIIE-UHFFFAOYSA-N,?,,"HANSCH,C ET AL. (1995)",1.42
100506,80-60-4,NOCAS_862679,[H]OC(=O)C([H])(N([H])[H])C([H])([H])C([H])([H])[H],ALPHA-AMINOBUTYRIC ACID,,,5156,DTXSID90862679,CCC(N)C(O)=O,"InChI=1S/C4H9NO2/c1-2-3(5)4(6)7/h3H,2,5H2,1H3,(H,6,7)",QWCKQJZIFLGMSD-UHFFFAOYSA-N,?,,"TSAI,RS ET AL. (1991)",-2.54
100507,80-62-6,80-62-6,[H]C([H])=C(C(=O)OC([H])([H])[H])C([H])([H])[H],METHYL METHACRYLATE,Methyl methacrylate,methyl 2-methylprop-2-enoate,5157,DTXSID2020844,CC(=C)C(=O)OC,"InChI=1S/C5H8O2/c1-4(2)5(6)7-3/h1H2,2-3H3",VVQNEPGJFQJSBK-UHFFFAOYSA-N,?,,"HANSCH,C ET AL. (1995)",1.38
100509,81-06-1,81-06-1,[H]OS(=O)(=O)C1=C([H])C([H])=C2C([H])=C([H])C([H])=C([H])C2=C1N([H])[H],1-AMINO-2-NAPHTHALENESULFONIC ACID,"2-Naphthalenesulfonic acid, 1-amino-",1-aminonaphthalene-2-sulfonic acid,5159,DTXSID7058838,Nc1c2ccccc2ccc1S(O)(=O)=O,"InChI=1S/C10H9NO3S/c11-10-8-4-2-1-3-7(8)5-6-9(10)15(12,13)14/h1-6H,11H2,(H,12,13,14)",ONZWNZGVZFLMNZ-UHFFFAOYSA-N,?,,"HANSCH,C ET AL. (1995)",-0.97
100510,81-07-2,81-07-2,[H]C1=C([H])C([H])=C2C(=C1[H])C(=O)N([H])S2(=O)=O,"1,1-DIOX-1,2-BENZISOTHIAZOL-3-ONE",Saccharin,"1,2-benzothiazol-3(2H)-one 1,1-dioxide",5160,DTXSID5021251,O=C1NS(=O)(=O)c2ccccc12,"InChI=1S/C7H5NO3S/c9-7-5-3-1-2-4-6(5)12(10,11)8-7/h1-4H,(H,8,9)",CVHZOJJKTDOEJC-UHFFFAOYSA-N,?,,"HANSCH,C ET AL. (1995)",0.91
100511,81-11-8,81-11-8,[H]OS(=O)(=O)C1=C([H])C(N([H])[H])=C([H])C([H])=C1/C([H])=C(\[H])C1=C(S(=O)(=O)O[H])C([H])=C(N([H])[H])C([H])=C1[H],Amsonic acid,"4,4'-Diamino-2,2'-stilbenedisulfonic acid",C14H14N2O6S2,5161,DTXSID5024926,Nc1cc(c(cc1)C=Cc1ccc(N)cc1S(O)(=O)=O)S(O)(=O)=O,"InChI=1S/C14H14N2O6S2/c15-11-5-3-9(13(7-11)23(17,18)19)1-2-10-4-6-12(16)8-14(10)24(20,21)22/h1-8H,15-16H2,(H,17,18,19)(H,20,21,22)/b2-1+",REJHVSOVQBJEBF-OWOJBTEDSA-N,?,,IUCLID 201-325-2,-1.7
100513,81-16-3,81-16-3,[H]OS(=O)(=O)C1=C(N([H])[H])C([H])=C([H])C2=C([H])C([H])=C([H])C([H])=C21,2-AMINO-1-NAPHTHALENESULFONIC ACID,2-Amino-1-naphthalenesulfonic acid,2-aminonaphthalene-1-sulfonic acid,5163,DTXSID7020922,Nc1ccc2ccccc2c1S(O)(=O)=O,"InChI=1S/C10H9NO3S/c11-9-6-5-7-3-1-2-4-8(7)10(9)15(12,13)14/h1-6H,11H2,(H,12,13,14)",GWIAAIUASRVOIA-UHFFFAOYSA-N,?,,"HANSCH,C ET AL. (1995)",-1.16
100514,81-20-9,81-20-9,[H]C1=C([H])C(C([H])([H])[H])=C([N+](=O)[O-])C(C([H])([H])[H])=C1[H],"1,3-DIMETHYL-2-NITROBENZENE","1,3-Dimethyl-2-nitrobenzene","1,3-dimethyl-2-nitrobenzene",5164,DTXSID7025134,Cc1cccc(C)c1[N+]([O-])=O,"InChI=1S/C8H9NO2/c1-6-4-3-5-7(2)8(6)9(10)11/h3-5H,1-2H3",HDFQKJQEWGVKCQ-UHFFFAOYSA-N,?,,"HANSCH,C ET AL. (1995)",2.95
100515,81-25-4,81-25-4,[H]OC(=O)C([H])([H])C([H])([H])C([H])(C([H])([H])[H])C1([H])C([H])([H])C([H])([H])C2([H])C3([H])C([H])(O[H])C([H])([H])C4([H])C([H])([H])C([H])(O[H])C([H])([H])C([H])([H])C4(C([H])([H])[H])C3([H])C([H])([H])C([H])(O[H])C12C([H])([H])[H],CHOLIC ACID,Cholic acid,"(3alpha,5beta,7alpha,8xi,12alpha)-3,7,12-trihydroxycholan-24-oic acid",5165,DTXSID6040660,CC(CCC(O)=O)C1CCC2C3C(CC(O)C21C)C1(C)CCC(O)CC1CC3O,"InChI=1S/C24H40O5/c1-13(4-7-21(28)29)16-5-6-17-22-18(12-20(27)24(16,17)3)23(2)9-8-15(25)10-14(23)11-19(22)26/h13-20,22,25-27H,4-12H2,1-3H3,(H,28,29)",BHQCQFFYRZLCQQ-UHFFFAOYSA-N,?,,"RODA,A ET AL. (1990)",2.02
100517,81-88-9,81-88-9,CCN(CC)C1=CC=C2C(=C1)[O+]=C1C=C(N(CC)CC)C=CC1=C2C1=CC=CC=C1C(=O)O,RHODAMINE B,Rhodamine B,"9-(2-carboxyphenyl)-3,6-bis(diethylamino)xanthenium chloride",5167,DTXSID6042369,CCN(CC)c1cc2[o+]c3cc(ccc3c(-c3ccccc3C(O)=O)c2cc1)N(CC)CC,"InChI=1S/C28H30N2O3/c1-5-29(6-2)19-13-15-23-25(17-19)33-26-18-20(30(7-3)8-4)14-16-24(26)27(23)21-11-9-10-12-22(21)28(31)32/h9-18H,5-8H2,1-4H3/p+1",CVAVMIODJQHEEH-UHFFFAOYSA-O,[Cl-],1,CHEMICALS INSPECTION AND TESTING INSTITU (1992),1.95
100518,81-92-5,81-92-5,[H]OC1=C([H])C([H])=C(C([H])(C2=C([H])C([H])=C(O[H])C([H])=C2[H])C2=C([H])C([H])=C([H])C([H])=C2C([H])([H])O[H])C([H])=C1[H],PHENOLPHTHALOL,Egmol,4-[[2-(hydroxymethyl)phenyl]-(4-hydroxyphenyl)methyl]phenol,5168,DTXSID00230845,OCc1ccccc1C(c1ccc(O)cc1)c1ccc(O)cc1,"InChI=1S/C20H18O3/c21-13-16-3-1-2-4-19(16)20(14-5-9-17(22)10-6-14)15-7-11-18(23)12-8-15/h1-12,20-23H,13H2",CREICILGVGNQBH-UHFFFAOYSA-N,?,,SANGSTER (1993),3.27
100519,82-05-3,82-05-3,[H]C1=C([H])C2=C(C([H])=C1[H])C1=C([H])C([H])=C([H])C3=C1C(=C([H])C([H])=C3[H])C2=O,BENZANTHRONE,Benz[de]anthracen-7-one,7H-benzo[de]anthracen-7-one,5169,DTXSID8052566,O=C1c2cccc3cccc(c32)-c2ccccc21,InChI=1S/C17H10O/c18-17-14-8-2-1-7-12(14)13-9-3-5-11-6-4-10-15(17)16(11)13/h1-10H,HUKPVYBUJRAUAG-UHFFFAOYSA-N,?,,CHEMICALS INSPECTION AND TESTING INSTITU (1992),4.81
100521,82-38-2,82-38-2,[H]C1=C([H])C([H])=C2C(=O)C3=C(C(=O)C2=C1[H])C([H])=C([H])C([H])=C3N([H])C([H])([H])[H],DISPERSE RED 9,1-(Methylamino)anthraquinone,"1-(methylamino)-9,10-anthraquinone",5171,DTXSID2052570,CNc1cccc2c1C(=O)c1ccccc1C2=O,"InChI=1S/C15H11NO2/c1-16-12-8-4-7-11-13(12)15(18)10-6-3-2-5-9(10)14(11)17/h2-8,16H,1H3",SVTDYSXXLJYUTM-UHFFFAOYSA-N,?,,"BAUGHMAN,GL & WEBER,EJ (1991)",4.1
100522,82-45-1,82-45-1,[H]C1=C([H])C([H])=C2C(=O)C3=C(C(=O)C2=C1[H])C([H])=C([H])C([H])=C3N([H])[H],1-AMINOANTHRAQUINONE,1-Aminoanthraquinone,"1-amino-9,10-anthraquinone",5172,DTXSID2052572,Nc1cccc2c1C(=O)c1ccccc1C2=O,"InChI=1S/C14H9NO2/c15-11-7-3-6-10-12(11)14(17)9-5-2-1-4-8(9)13(10)16/h1-7H,15H2",KHUFHLFHOQVFGB-UHFFFAOYSA-N,?,,CHEMICALS INSPECTION AND TESTING INSTITU (1992),3.74
100523,82-66-6,82-66-6,[H]C1=C([H])C([H])=C(C([H])(C(=O)C2([H])C(=O)C3=C(C2=O)C([H])=C([H])C([H])=C3[H])C2=C([H])C([H])=C([H])C([H])=C2[H])C([H])=C1[H],DIPHACINONE,Diphacinone,"2-(diphenylacetyl)-1H-indene-1,3(2H)-dione",5173,DTXSID4032378,O=C(C1C(=O)c2ccccc2C1=O)C(c1ccccc1)c1ccccc1,"InChI=1S/C23H16O3/c24-21-17-13-7-8-14-18(17)22(25)20(21)23(26)19(15-9-3-1-4-10-15)16-11-5-2-6-12-16/h1-14,19-20H",JYGLAHSAISAEAL-UHFFFAOYSA-N,?,,USEPA RED,4.27
100525,82-86-0,82-86-0,[H]C1=C([H])C2=C3C(=C1[H])C(=O)C(=O)C3=C([H])C([H])=C2[H],"1,2-ACENAPHTHYLENEDIONE",Acenaphthenequinone,"acenaphthylene-1,2-dione",5175,DTXSID7049429,O=C1c2cccc3cccc(c32)C1=O,InChI=1S/C12H6O2/c13-11-8-5-1-3-7-4-2-6-9(10(7)8)12(11)14/h1-6H,AFPRJLBZLPBTPZ-UHFFFAOYSA-N,?,,"HANSCH,C ET AL. (1995)",1.95
100526,83-05-6,83-05-6,[H]OC(=O)C([H])(C1=C([H])C([H])=C(Cl)C([H])=C1[H])C1=C([H])C([H])=C(Cl)C([H])=C1[H],DDA,"p,p'-DDA",bis(4-chlorophenyl)acetic acid,5176,DTXSID3040699,OC(=O)C(c1ccc(Cl)cc1)c1ccc(Cl)cc1,"InChI=1S/C14H10Cl2O2/c15-11-5-1-9(2-6-11)13(14(17)18)10-3-7-12(16)8-4-10/h1-8,13H,(H,17,18)",YIOCIFXUGBYCJR-UHFFFAOYSA-N,?,,"JAFVERT,CT ET AL. (1990)",4.64
100527,83-12-5,83-12-5,[H]C1=C([H])C([H])=C(C2([H])C(=O)C3=C(C2=O)C([H])=C([H])C([H])=C3[H])C([H])=C1[H],"2-PHENYL-1H-INDENE-1,3(2H)-DIONE",Phenindione,"2-phenyl-1H-indene-1,3(2H)-dione",5177,DTXSID5023453,O=C1C(c2ccccc2)C(=O)c2ccccc12,"InChI=1S/C15H10O2/c16-14-11-8-4-5-9-12(11)15(17)13(14)10-6-2-1-3-7-10/h1-9,13H",NFBAXHOPROOJAW-UHFFFAOYSA-N,?,,"HANSCH,C ET AL. (1995)",2.9
100529,83-32-9,83-32-9,[H]C1=C([H])C2=C([H])C([H])=C([H])C3=C2C(=C1[H])C([H])([H])C3([H])[H],ACENAPHTHENE,Acenaphthene,"1,2-dihydroacenaphthylene",5179,DTXSID3021774,C1Cc2cccc3cccc1c23,"InChI=1S/C12H10/c1-3-9-4-2-6-11-8-7-10(5-1)12(9)11/h1-6H,7-8H2",CWRYPZZKDGJXCA-UHFFFAOYSA-N,?,,"HANSCH,C ET AL. (1995)",3.92
100530,83-34-1,83-34-1,[H]C1=C([H])C([H])=C2C(=C1[H])C(C([H])([H])[H])=C([H])N2[H],3-METHYLINDOLE,3-Methylindole,3-methyl-1H-indole,5180,DTXSID8021775,Cc1c[nH]c2ccccc21,"InChI=1S/C9H9N/c1-7-6-10-9-5-3-2-4-8(7)9/h2-6,10H,1H3",ZFRKQXVRDFCRJG-UHFFFAOYSA-N,?,,"HANSCH,C ET AL. (1995)",2.6
100531,83-40-9,83-40-9,[H]OC(=O)C1=C([H])C([H])=C([H])C(C([H])([H])[H])=C1O[H],3-METHYLSALICYLIC ACID,2-Hydroxy-3-methylbenzoic acid,2-hydroxy-3-methylbenzoic acid,5181,DTXSID9038686,Cc1cccc(C(O)=O)c1O,"InChI=1S/C8H8O3/c1-5-3-2-4-6(7(5)9)8(10)11/h2-4,9H,1H3,(H,10,11)",WHSXTWFYRGOBGO-UHFFFAOYSA-N,?,,"HANSCH,C ET AL. (1995)",2.86
100533,83-42-1,83-42-1,[H]C1=C([H])C(Cl)=C(C([H])([H])[H])C([N+](=O)[O-])=C1[H],"BENZENE, 1-CHLORO-2-METHYL-3-NITRO-",1-Chloro-2-methyl-3-nitrobenzene,1-chloro-2-methyl-3-nitrobenzene,5183,DTXSID1041263,Cc1c(Cl)cccc1[N+]([O-])=O,"InChI=1S/C7H6ClNO2/c1-5-6(8)3-2-4-7(5)9(10)11/h2-4H,1H3",XCSNRORTQRKCHB-UHFFFAOYSA-N,?,,"DENEER,JW ET AL. (1987)",3.09
100534,83-44-3,83-44-3,[H]OC(=O)C([H])([H])C([H])([H])C([H])(C([H])([H])[H])C1([H])C([H])([H])C([H])([H])C2([H])C3([H])C([H])([H])C([H])([H])C4([H])C([H])([H])C([H])(O[H])C([H])([H])C([H])([H])C4(C([H])([H])[H])C3([H])C([H])([H])C([H])(O[H])C12C([H])([H])[H],DEOXYCHOLIC ACID,Deoxycholic acid,"(3alpha,5beta,12alpha)-3,12-dihydroxycholan-24-oic acid",5184,DTXSID0042662,CC(CCC(O)=O)C1CCC2C3CCC4CC(O)CCC4(C)C3CC(O)C21C,"InChI=1S/C24H40O4/c1-14(4-9-22(27)28)18-7-8-19-17-6-5-15-12-16(25)10-11-23(15,2)20(17)13-21(26)24(18,19)3/h14-21,25-26H,4-13H2,1-3H3,(H,27,28)",KXGVEGMKQFWNSR-UHFFFAOYSA-N,?,,"RODA,A ET AL. (1990)",3.5
100536,83-54-5,83-54-5,[H]C1=C([H])C([H])=C2C(=C1[H])C(=O)C([H])=C([H])N2C([H])([H])[H],"4(1H)-Quinolinone, 1-methyl-",Echinopsine,1-methylquinolin-4-one,5185,DTXSID30232110,CN1C=CC(=O)c2ccccc12,"InChI=1S/C10H9NO/c1-11-7-6-10(12)8-4-2-3-5-9(8)11/h2-7H,1H3",CSJAXRKDCCWCSJ-UHFFFAOYSA-N,?,,BIOBYTE (1995),0.44
100538,83-67-0,83-67-0,[H]C1=NC2=C(C(=O)N([H])C(=O)N2C([H])([H])[H])N1C([H])([H])[H],THEOBROMINE,Theobromine,"3,7-dimethyl-3,7-dihydro-1H-purine-2,6-dione",5187,DTXSID9026132,CN1c2[n]c[n](C)c2C(=O)NC1=O,"InChI=1S/C7H8N4O2/c1-10-3-8-5-4(10)6(12)9-7(13)11(5)2/h3H,1-2H3,(H,9,12,13)",YAPQBXQYLJRXSA-UHFFFAOYSA-N,?,,"HANSCH,C ET AL. (1995)",-0.78
100539,83-72-7,83-72-7,[H]OC1=C([H])C(=O)C2=C([H])C([H])=C([H])C([H])=C2C1=O,"1,4-NAPHOQUINONE, 2-HYDROXY","2-Hydroxy-1,4-naphthoquinone","2-hydroxynaphthalene-1,4-dione",5188,DTXSID2025428,OC1=CC(=O)c2ccccc2C1=O,"InChI=1S/C10H6O3/c11-8-5-9(12)10(13)7-4-2-1-3-6(7)8/h1-5,12H",CSFWPUWCSPOLJW-UHFFFAOYSA-N,?,,"HANSCH,C ET AL. (1995)",1.38
100540,83-79-4,83-79-4,[H]C([H])=C(C([H])([H])[H])C1([H])OC2=C(C3=C(C(=O)C4([H])C5=C([H])C(OC([H])([H])[H])=C(OC([H])([H])[H])C([H])=C5OC([H])([H])C4([H])O3)C([H])=C2[H])C1([H])[H],ROTENONE,Rotenone,"(2R,6aS,12aS)-8,9-dimethoxy-2-(prop-1-en-2-yl)-1,2,12,12a-tetrahydrochromeno[3,4-b]furo[2,3-h]chromen-6(6aH)-one",5189,DTXSID6021248,CC(=C)C1Cc2c3OC4COc5cc(OC)c(cc5C4C(=O)c3ccc2O1)OC,"InChI=1S/C23H22O6/c1-11(2)16-8-14-15(28-16)6-5-12-22(24)21-13-7-18(25-3)19(26-4)9-17(13)27-10-20(21)29-23(12)14/h5-7,9,16,20-21H,1,8,10H2,2-4H3",JUVIOZPCNVVQFO-UHFFFAOYSA-N,?,,"HANSCH,C ET AL. (1995)",4.1