ChemID,source_casrn,CAS,SMILES,NAME,preferred_name,iupac,MPID,dsstox_substance_id,Canonical_QSARr,InChI_Code_QSARr,InChI Key_QSARr,Salt_Solvent,Salt_Solvent_ID,Kow Reference,LogP
103634,2011-57-6,2011-57-6,[H]OC1=C([H])C([H])=C(N([H])C(=O)C([H])([H])[H])C(C([H])([H])[H])=C1C([H])([H])[H],"2,3-DIME-4-HYDROXYACETANILIDE",,,8161,DTXSID30876033,Cc1c(O)ccc(NC(C)=O)c1C,"InChI=1S/C10H13NO2/c1-6-7(2)10(13)5-4-9(6)11-8(3)12/h4-5,13H,1-3H3,(H,11,12)",JBGFEGSISUPAGK-UHFFFAOYSA-N,?,,"HANSCH,C ET AL. (1995)",0.57
103636,2012-81-9,2012-81-9,[H]C1=C([H])C(C([H])(C#N)C([H])(C([H])([H])[H])C([H])([H])[H])=C([H])C([H])=C1Cl,"BENZENEACETONITRILE, 4-CHLORO-.ALPHA.-(1-METHYLE",,,8163,DTXSID70874179,CC(C)C(C#N)c1ccc(Cl)cc1,"InChI=1S/C11H12ClN/c1-8(2)11(7-13)9-3-5-10(12)6-4-9/h3-6,8,11H,1-2H3",RBGSZIRWNWQDOK-UHFFFAOYSA-N,?,,"WANG,W ET AL. (1987)",3.41
103637,2018-61-3,10172-89-1,[H]OC(=O)C([H])(N([H])C(=O)C([H])([H])[H])C([H])([H])C1=C([H])C([H])=C([H])C([H])=C1[H],"L-PHENYLALANINE, N-ACETYL-",N-Acetyl-3-phenyl-D-alanine,(2R)-2-acetamido-3-phenylpropanoic acid,8164,DTXSID90144144,CC(=O)NC(Cc1ccccc1)C(O)=O,"InChI=1S/C11H13NO3/c1-8(13)12-10(11(14)15)7-9-5-3-2-4-6-9/h2-6,10H,7H2,1H3,(H,12,13)(H,14,15)",CBQJSKKFNMDLON-UHFFFAOYSA-N,?,,"GREEN,PG ET AL. (1991)",0.93
103638,2021-26-3,2021-26-3,[H]C1=C([H])C([H])=C(C2=C([H])C([H])=C3C(=O)N([H])C(=O)C3=C2[H])C([H])=C1[H],"1H-ISOINDOLE-1,3(2H)-DIONE, 5-PHENYL-","5-Phenyl-1H-isoindole-1,3(2H)-dione",C14H9NO2,8165,DTXSID20346674,O=C1NC(=O)c2cc(ccc12)-c1ccccc1,"InChI=1S/C14H9NO2/c16-13-11-7-6-10(8-12(11)14(17)15-13)9-4-2-1-3-5-9/h1-8H,(H,15,16,17)",FCSWIKQIQMHZKO-UHFFFAOYSA-N,?,,SANGSTER (1993),2.97
103640,2024-34-2,2024-34-2,[H]C1=C([H])C(F)=C(C2=NC([H])([H])C(=O)N(C([H])([H])[H])C3=C([H])C([H])=C(F)C([H])=C23)C([H])=C1[H],"1,4-BENZODIAZEPIN-2-ONE,7-FLUORO-5-(2-FLUOROPHEN",,,8167,DTXSID60877937,CN1C(=O)CN=C(c2cc(F)ccc12)c1ccccc1F,"InChI=1S/C16H12F2N2O/c1-20-14-7-6-10(17)8-12(14)16(19-9-15(20)21)11-4-2-3-5-13(11)18/h2-8H,9H2,1H3",QVHGYSIBAWJWBD-UHFFFAOYSA-N,?,,"HANSCH,C ET AL. (1995)",2.41
103641,2025-40-3,2025-40-3,[H]C1=C([H])C([H])=C(/C([H])=C(\C#N)C(=O)OC([H])([H])C([H])([H])[H])C([H])=C1[H],2-CYANO-3-PHENYL ET-2-PROPENOATE,"2-Propenoic acid, 2-cyano-3-phenyl-, ethyl ester",,8168,DTXSID8062107,CCOC(=O)C(=Cc1ccccc1)C#N,"InChI=1S/C12H11NO2/c1-2-15-12(14)11(9-13)8-10-6-4-3-5-7-10/h3-8H,2H2,1H3/b11-8+",KCDAMWRCUXGACP-DHZHZOJOSA-N,?,,"HANSCH,C ET AL. (1995)",2.43
103642,2027-47-6,2027-47-6,[H]OC(=O)C([H])([H])C([H])([H])C([H])([H])C([H])([H])C([H])([H])C([H])([H])C([H])([H])/C([H])=C(\[H])C([H])([H])C([H])([H])C([H])([H])C([H])([H])C([H])([H])C([H])([H])C([H])([H])C([H])([H])[H],9-OCTADECENOIC ACID,Octadec-9-enoic acid,octadec-9-enoic acid,8169,DTXSID7048118,CCCCCCCCC=CCCCCCCCC(O)=O,"InChI=1S/C18H34O2/c1-2-3-4-5-6-7-8-9-10-11-12-13-14-15-16-17-18(19)20/h9-10H,2-8,11-17H2,1H3,(H,19,20)/b10-9+",ZQPPMHVWECSIRJ-MDZDMXLPSA-N,?,,SANGSTER (1993),7.64
103644,2030-63-9,2030-63-9,[H]C1=C([H])C2=C(C([H])=C1[H])N(C1=C([H])C([H])=C(Cl)C([H])=C1[H])C1=C([H])/C(=N\C([H])(C([H])([H])[H])C([H])([H])[H])C(N([H])C3=C([H])C([H])=C(Cl)C([H])=C3[H])=C([H])C1=N2,CLOFAZIMINE,Clofazimine,"(3Z)-N,5-bis(4-chlorophenyl)-3-(propan-2-ylimino)-3,5-dihydrophenazin-2-amine",8171,DTXSID7022839,CC(C)N=C1C=C2C(C=C1Nc1ccc(Cl)cc1)=Nc1ccccc1N2c1ccc(Cl)cc1,"InChI=1S/C27H22Cl2N4/c1-17(2)30-24-16-27-25(15-23(24)31-20-11-7-18(28)8-12-20)32-22-5-3-4-6-26(22)33(27)21-13-9-19(29)10-14-21/h3-17,31H,1-2H3/b30-24+",WDQPAMHFFCXSNU-BGABXYSRSA-N,?,,"QUIGLEY,JM ET AL. (1990)",7.66
103645,2032-59-9,2032-59-9,[H]C1=C(OC(=O)N([H])C([H])([H])[H])C([H])=C(C([H])([H])[H])C(N(C([H])([H])[H])C([H])([H])[H])=C1[H],AMINOCARB,Aminocarb,4-(dimethylamino)-3-methylphenyl methylcarbamate,8172,DTXSID7022172,Cc1cc(ccc1N(C)C)OC(=O)NC,"InChI=1S/C11H16N2O2/c1-8-7-9(15-11(14)12-2)5-6-10(8)13(3)4/h5-7H,1-4H3,(H,12,14)",IMIDOCRTMDIQIJ-UHFFFAOYSA-N,?,,SANGSTER (1993),1.9
103646,2032-65-7,2032-65-7,[H]C1=C(OC(=O)N([H])C([H])([H])[H])C([H])=C(C([H])([H])[H])C(SC([H])([H])[H])=C1C([H])([H])[H],METHIOCARB,Methiocarb,"3,5-dimethyl-4-(methylsulfanyl)phenyl methylcarbamate",8173,DTXSID3032626,CNC(=O)Oc1cc(C)c(SC)c(C)c1,"InChI=1S/C11H15NO2S/c1-7-5-9(14-11(13)12-3)6-8(2)10(7)15-4/h5-6H,1-4H3,(H,12,13)",YFBPRJGDJKVWAH-UHFFFAOYSA-N,?,,"HANSCH,C ET AL. (1995)",2.92
103648,,2035-15-6,[H]OC1=C([H])C([H])=C2C(=C1[H])OC([H])([H])C1([H])C3=C([H])C4=C(OC([H])([H])O4)C([H])=C3OC21[H],"6H-[1,3]DIOXOLO[5,6]BENZOFURO[3,2-C][1]BENZOPYRA",,,8175,,Oc1cc2OCC3C(Oc4cc5OCOc5cc43)c2cc1,"InChI=1S/C16H12O5/c17-8-1-2-9-12(3-8)18-6-11-10-4-14-15(20-7-19-14)5-13(10)21-16(9)11/h1-5,11,16-17H,6-7H2",HUKSJTUUSUGIDC-UHFFFAOYSA-N,?,,"ARNOLDI,A & MERLINI,L (1990)",2.61
103649,2036-41-1,2036-41-1,[H]C1=NC([H])=C(C([H])([H])[H])C([H])=N1,"PYRIMIDINE, 5-METHYL-","Pyrimidine, 5-methyl-",5-Methylpyrimidine,8176,DTXSID2062115,Cc1c[n]c[n]c1,"InChI=1S/C5H6N2/c1-5-2-6-4-7-3-5/h2-4H,1H3",TWGNOYAGHYUFFR-UHFFFAOYSA-N,?,,"YAMAGAMI,C ET AL. (1990)",0.01
103650,2038-57-5,2038-57-5,[H]C1=C([H])C([H])=C(C([H])([H])C([H])([H])C([H])([H])N([H])[H])C([H])=C1[H],3-PHENYL PROPYLAMINE,3-Phenylpropylamine,3-phenylpropan-1-amine,8177,DTXSID10174307,NCCCc1ccccc1,"InChI=1S/C9H13N/c10-8-4-7-9-5-2-1-3-6-9/h1-3,5-6H,4,7-8,10H2",LYUQWQRTDLVQGA-UHFFFAOYSA-N,?,,"HANSCH,C ET AL. (1995)",1.83
103652,2039-89-6,2039-89-6,[H]C([H])=C([H])C1=C([H])C(C([H])([H])[H])=C([H])C([H])=C1C([H])([H])[H],"Styrene, 2,5-dimethyl-","Benzene, 2-ethenyl-1,4-dimethyl-","2-ethenyl-1,4-dimethylbenzene",8179,DTXSID6074702,Cc1cc(C=C)c(C)cc1,"InChI=1S/C10H12/c1-4-10-7-8(2)5-6-9(10)3/h4-7H,1H2,2-3H3",DBWWINQJTZYDFK-UHFFFAOYSA-N,?,,"BRACK,W ET AL. (1998)",4.16
103653,2042-14-0,2042-14-0,[H]OC1=C([H])C([H])=C(C([H])([H])[H])C([N+](=O)[O-])=C1[H],3-NITRO-P-CRESOL,,,8180,DTXSID90879085,Cc1ccc(O)cc1[N+]([O-])=O,"InChI=1S/C7H7NO3/c1-5-2-3-6(9)4-7(5)8(10)11/h2-4,9H,1H3",BQEXDUKMTVYBRK-UHFFFAOYSA-N,?,,CHEMICALS INSPECTION AND TESTING INSTITU (1992),2.18
103654,2043-47-2,2043-47-2,[H]OC([H])([H])C([H])([H])C(F)(F)C(F)(F)C(F)(F)C(F)(F)F,"1-Hexanol, 3,3,4,4,5,5,6,6,6-nonafluoro-","1-Hexanol, 3,3,4,4,5,5,6,6,6-nonafluoro-","3,3,4,4,5,5,6,6,6-nonafluorohexan-1-ol",8181,DTXSID1062122,OCCC(F)(F)C(F)(F)C(F)(F)C(F)(F)F,"InChI=1S/C6H5F9O/c7-3(8,1-2-16)4(9,10)5(11,12)6(13,14)15/h16H,1-2H2",JCMNMOBHVPONLD-UHFFFAOYSA-N,?,,"CARMOSINI,N & LEE,SL (2008)",3.3
103656,2046-18-6,2046-18-6,[H]C1=C([H])C([H])=C(C([H])([H])C([H])([H])C([H])([H])C#N)C([H])=C1[H],G-PHENYLPROPYLCYANIDE,Benzenebutanenitrile,4-phenylbutanenitrile,8183,DTXSID6062129,N#CCCCc1ccccc1,"InChI=1S/C10H11N/c11-9-5-4-8-10-6-2-1-3-7-10/h1-3,6-7H,4-5,8H2",ICMVGKQFVMTRLB-UHFFFAOYSA-N,?,,"HANSCH,C ET AL. (1995)",2.21
103657,2046-19-7,62777-25-7,[H]OC(=O)C([H])(N([H])[H])C([H])([H])C([H])([H])C([H])([H])C1=C([H])C([H])=C([H])C([H])=C1[H],2-AMINO-5-PHENYLPENTANOIC ACID,(S)-2-amino-5-phenylpentanoic acid,C11H15NO2,8184,DTXSID90375931,NC(CCCc1ccccc1)C(O)=O,"InChI=1S/C11H15NO2/c12-10(11(13)14)8-4-7-9-5-2-1-3-6-9/h1-3,5-6,10H,4,7-8,12H2,(H,13,14)",XOQZTHUXZWQXOK-UHFFFAOYSA-N,?,,"HANSCH,C ET AL. (1995)",-0.36
103658,2046-21-1,2046-21-1,[H]C([H])([H])OC(=O)C([H])([H])C([H])([H])C([H])([H])C([H])([H])C(=O)C([H])([H])[H],6-KETO METHYLHEPTANOATE,Methyl 6-oxoheptanoate,C8H14O3,8185,DTXSID40302070,CC(=O)CCCCC(=O)OC,"InChI=1S/C8H14O3/c1-7(9)5-3-4-6-8(10)11-2/h3-6H2,1-2H3",BSBYQAYWPXHLPQ-UHFFFAOYSA-N,?,,"HANSCH,C ET AL. (1995)",0.55
103660,2046-33-5,2046-33-5,[H]C1=C([H])C([H])=C(C([H])([H])C([H])([H])C([H])([H])OC([H])([H])[H])C([H])=C1[H],1-METHOXY-3-PHENYLPROPANE,,,8187,DTXSID60876086,COCCCc1ccccc1,"InChI=1S/C10H14O/c1-11-9-5-8-10-6-3-2-4-7-10/h2-4,6-7H,5,8-9H2,1H3",FWJPBLZTIQGEGB-UHFFFAOYSA-N,?,,"HANSCH,C ET AL. (1995)",2.7
103661,2050-43-3,2050-43-3,[H]C1=C([H])C(C([H])([H])[H])=C([H])C(C([H])([H])[H])=C1N([H])C(=O)C([H])([H])[H],"2,4-DIMETHYLACETANILIDE","N-(2,4-Dimethylphenyl)acetamide","N-(2,4-dimethylphenyl)acetamide",8188,DTXSID0044868,Cc1cc(C)c(cc1)NC(C)=O,"InChI=1S/C10H13NO/c1-7-4-5-10(8(2)6-7)11-9(3)12/h4-6H,1-3H3,(H,11,12)",PJEIIBXJUDOMAN-UHFFFAOYSA-N,?,,"NAKAGAWA,Y ET AL. (1992)",1.46
103662,2050-44-4,2050-44-4,[H]C1=C(N([H])C(=O)C([H])([H])[H])C(C([H])([H])[H])=C([H])C([H])=C1C([H])([H])[H],"2,5-DIMETHYLACETANILIDE","Acetamide, N-(2,5-dimethylphenyl)- (9CI)","N-(2,5-Dimethylphenyl)acetamide",8189,DTXSID50174487,Cc1cc(NC(C)=O)c(C)cc1,"InChI=1S/C10H13NO/c1-7-4-5-8(2)10(6-7)11-9(3)12/h4-6H,1-3H3,(H,11,12)",CXLKSNKWHULUKA-UHFFFAOYSA-N,?,,"NAKAGAWA,Y ET AL. (1992)",1.47
103664,2050-67-1,2050-67-1,[H]C1=C([H])C(C2=C([H])C(Cl)=C([H])C([H])=C2[H])=C([H])C(Cl)=C1[H],"3,3'-DICHLOROBIPHENYL",Clophen A 30,"3,3'-dichlorobiphenyl",8191,DTXSID70872817,Clc1cc(ccc1)-c1cc(Cl)ccc1,InChI=1S/C12H8Cl2/c13-11-5-1-3-9(7-11)10-4-2-6-12(14)8-10/h1-8H,KTXUOWUHFLBZPW-UHFFFAOYSA-N,?,,SANGSTER (1993),5.27
103665,2050-68-2,2050-68-2,[H]C1=C([H])C(C2=C([H])C([H])=C(Cl)C([H])=C2[H])=C([H])C([H])=C1Cl,"4,4'-DICHLOROBIPHENYL","4,4'-Dichlorobiphenyl","4,4'-dichlorobiphenyl",8192,DTXSID0022515,Clc1ccc(cc1)-c1ccc(Cl)cc1,InChI=1S/C12H8Cl2/c13-11-5-1-9(2-6-11)10-3-7-12(14)8-4-10/h1-8H,YTBRNEUEFCNVHC-UHFFFAOYSA-N,?,,SANGSTER (1994),5.23
103666,2050-69-3,2050-69-3,[H]C1=C([H])C([H])=C2C(Cl)=C(Cl)C([H])=C([H])C2=C1[H],"1,2-DICHLORONAPHTHALENE","Naphthalene, 1,2-dichloro-","1,2-DICHLORONAPHTHALENE",8193,DTXSID5062136,Clc1ccc2ccccc2c1Cl,InChI=1S/C10H6Cl2/c11-9-6-5-7-3-1-2-4-8(7)10(9)12/h1-6H,MOXLHAPKZWTHEX-UHFFFAOYSA-N,?,,"HANSCH,C ET AL. (1995)",4.42
103668,2050-74-0,2050-74-0,[H]C1=C([H])C(Cl)=C2C(Cl)=C([H])C([H])=C([H])C2=C1[H],"1,8-DICHLORONAPHTHALENE","Naphthalene, 1,8-dichloro-","1,8-DICHLORONAPHTHALENE",8195,DTXSID0062139,Clc1cccc2cccc(Cl)c12,InChI=1S/C10H6Cl2/c11-8-5-1-3-7-4-2-6-9(12)10(7)8/h1-6H,ADRYPAGQXFMVFP-UHFFFAOYSA-N,?,,SANGSTER (1994),4.3
103669,2050-75-1,2050-75-1,[H]C1=C([H])C([H])=C2C([H])=C(Cl)C(Cl)=C([H])C2=C1[H],"2,3-DICHLORONAPHTHALENE","Naphthalene, 2,3-dichloro-","2,3-DICHLORONAPHTHALENE",8196,DTXSID9062140,Clc1cc2ccccc2cc1Cl,InChI=1S/C10H6Cl2/c11-9-5-7-3-1-2-4-8(7)6-10(9)12/h1-6H,SKGXUFZRYNGFJS-UHFFFAOYSA-N,?,,"HANSCH,C ET AL. (1995)",4.42
103670,2050-76-2,2050-76-2,[H]OC1=C(Cl)C([H])=C(Cl)C2=C([H])C([H])=C([H])C([H])=C12,"2,4-DICHLORO-1-NAPHTHOL","1-Naphthalenol, 2,4-dichloro-","2,4-dichloronaphthalen-1-ol",8197,DTXSID4062141,Oc1c2ccccc2c(Cl)cc1Cl,"InChI=1S/C10H6Cl2O/c11-8-5-9(12)10(13)7-4-2-1-3-6(7)8/h1-5,13H",HVLJEMXDXOTWLV-UHFFFAOYSA-N,?,,CHEMICALS INSPECTION AND TESTING INSTITU (1992),4.23
103672,2051-24-3,2051-24-3,ClC1=C(Cl)C(Cl)=C(C2=C(Cl)C(Cl)=C(Cl)C(Cl)=C2Cl)C(Cl)=C1Cl,DECACHLOROBIPHENYL,Decachlorobiphenyl,decachlorobiphenyl,8199,DTXSID4047541,Clc1c(-c2c(Cl)c(Cl)c(Cl)c(Cl)c2Cl)c(Cl)c(Cl)c(Cl)c1Cl,InChI=1S/C12Cl10/c13-3-1(4(14)8(18)11(21)7(3)17)2-5(15)9(19)12(22)10(20)6(2)16,ONXPZLFXDMAPRO-UHFFFAOYSA-N,?,,"DEBRUIJN,J ET AL. (1989)",8.27
103673,2051-60-7,2051-60-7,[H]C1=C([H])C([H])=C(C2=C([H])C([H])=C([H])C([H])=C2Cl)C([H])=C1[H],2-CHLOROBIPHENYL,2-Chlorobiphenyl,2-chlorobiphenyl,8200,DTXSID6040298,Clc1ccccc1-c1ccccc1,InChI=1S/C12H9Cl/c13-12-9-5-4-8-11(12)10-6-2-1-3-7-10/h1-9H,LAXBNTIAOJWAOP-UHFFFAOYSA-N,?,,"HANSCH,C ET AL. (1995)",4.53
103674,2051-61-8,2051-61-8,[H]C1=C([H])C([H])=C(C2=C([H])C([H])=C([H])C(Cl)=C2[H])C([H])=C1[H],3-CHLOROBIPHENYL,3-Chlorobiphenyl,3-chlorobiphenyl,8201,DTXSID1040299,Clc1cc(ccc1)-c1ccccc1,InChI=1S/C12H9Cl/c13-12-8-4-7-11(9-12)10-5-2-1-3-6-10/h1-9H,NMWSKOLWZZWHPL-UHFFFAOYSA-N,?,,"HANSCH,C ET AL. (1995)",4.58
103676,2051-95-8,2051-95-8,[H]OC(=O)C([H])([H])C([H])([H])C(=O)C1=C([H])C([H])=C([H])C([H])=C1[H],"BENZENEBUTANOIC ACID, GAMMA -OXO-","Benzenebutanoic acid, .gamma.-oxo-",4-oxo-4-phenylbutanoic acid,8203,DTXSID4062149,OC(=O)CCC(=O)c1ccccc1,"InChI=1S/C10H10O3/c11-9(6-7-10(12)13)8-4-2-1-3-5-8/h1-5H,6-7H2,(H,12,13)",KMQLIDDEQAJAGJ-UHFFFAOYSA-N,?,,SANGSTER (1993),1.3
103677,2052-07-5,2052-07-5,[H]C1=C([H])C([H])=C(C2=C([H])C([H])=C([H])C([H])=C2Br)C([H])=C1[H],O-BROMOBIPHENYL,2-Bromobiphenyl,2-bromobiphenyl,8204,DTXSID0024638,Brc1ccccc1-c1ccccc1,InChI=1S/C12H9Br/c13-12-9-5-4-8-11(12)10-6-2-1-3-7-10/h1-9H,KTADSLDAUJLZGL-UHFFFAOYSA-N,?,,"DOUCETTE,WJ & ANDREN,AW (1987)",4.59
103678,2052-14-4,2052-14-4,[H]OC1=C(C(=O)OC([H])([H])C([H])([H])C([H])([H])C([H])([H])[H])C([H])=C([H])C([H])=C1[H],"BENZOIC ACID, 2-HYDROXY-, BUTYL ESTER",Butyl salicylate,C11H14O3,8205,DTXSID8062153,CCCCOC(=O)c1ccccc1O,"InChI=1S/C11H14O3/c1-2-3-8-14-11(13)9-6-4-5-7-10(9)12/h4-7,12H,2-3,8H2,1H3",YFDUWSBGVPBWKF-UHFFFAOYSA-N,?,,"KORENMAN,YI & DANILOV,VN (1990)",4.63
103680,2055-21-2,2055-21-2,[H]C1=NC([H])=C([H])C([H])=C1C([H])([H])N(C([H])([H])[H])C([H])([H])[H],"N,N-DIMETHYL-3-PYRIDYLMETHYLAMINE",,,8207,DTXSID70879200,CN(C)Cc1c[n]ccc1,"InChI=1S/C8H12N2/c1-10(2)7-8-4-3-5-9-6-8/h3-6H,7H2,1-2H3",SLZCOYDOFRTTHF-UHFFFAOYSA-N,?,,"HANSCH,C ET AL. (1995)",0.49
103681,2055-46-1,2055-46-1,[H]SC1=NC([H])([H])C([H])([H])C([H])([H])N1[H],"N,N'-TRIMETHYLENETHIOUREA",Propylenethiourea,,8208,DTXSID3062156,SC1NCCCN=1,"InChI=1S/C4H8N2S/c7-4-5-2-1-3-6-4/h1-3H2,(H2,5,6,7)",NVHNGVXBCWYLFA-UHFFFAOYSA-N,?,,"HANSCH,C ET AL. (1995)",-0.68
103682,2058-74-4,2058-74-4,[H]C1=C([H])C([H])=C2C(=C1[H])C(=O)C(=O)N2C([H])([H])[H],"N-METHYLINDOL-2,3-DIONE",N-Methylisatin,"1-methylindole-2,3-dione",8209,DTXSID80174591,CN1c2ccccc2C(=O)C1=O,"InChI=1S/C9H7NO2/c1-10-7-5-3-2-4-6(7)8(11)9(10)12/h2-5H,1H3",VCYBVWFTGAZHGH-UHFFFAOYSA-N,?,,"HANSCH,C ET AL. (1995)",0.58
103684,2060-58-4,2060-58-4,[H]OC([H])([H])C([H])(Cl)/C([H])=C(\[H])C#CC#CC#C/C([H])=C(\[H])C([H])([H])[H],"3,11-TRIDECADIENE-5,7,9-TRIYN-1-OL, 2-CHLORO-",,,8211,DTXSID20874386,CC=CC#CC#CC#CC=CC(Cl)CO,"InChI=1S/C13H11ClO/c1-2-3-4-5-6-7-8-9-10-11-13(14)12-15/h2-3,10-11,13,15H,12H2,1H3/b3-2+,11-10+",YYPASFKEHCFNLV-MYPVRGOXSA-N,?,,"MCLACHLAN,D ET AL. (1986)",3.91
103685,2062-78-4,2062-78-4,[H]C1=C([H])C([H])=C2C(=C1[H])N([H])C(=O)N2C1([H])C([H])([H])C([H])([H])N(C([H])([H])C([H])([H])C([H])([H])C([H])(C2=C([H])C([H])=C(F)C([H])=C2[H])C2=C([H])C([H])=C(F)C([H])=C2[H])C([H])([H])C1([H])[H],PIMOZIDE,Pimozide,"1-{1-[4,4-bis(4-fluorophenyl)butyl]piperidin-4-yl}-1,3-dihydro-2H-benzimidazol-2-one",8212,DTXSID8023474,O=C1Nc2ccccc2N1C1CCN(CCCC(c2ccc(F)cc2)c2ccc(F)cc2)CC1,"InChI=1S/C28H29F2N3O/c29-22-11-7-20(8-12-22)25(21-9-13-23(30)14-10-21)4-3-17-32-18-15-24(16-19-32)33-27-6-2-1-5-26(27)31-28(33)34/h1-2,5-14,24-25H,3-4,15-19H2,(H,31,34)",YVUQSNJEYSNKRX-UHFFFAOYSA-N,?,,"HANSCH,C ET AL. (1995)",6.3
103686,2062-84-2,2062-84-2,[H]C1=C([H])C([H])=C2C(=C1[H])N([H])C(=O)N2C1([H])C([H])([H])C([H])([H])N(C([H])([H])C([H])([H])C([H])([H])C(=O)C2=C([H])C([H])=C(F)C([H])=C2[H])C([H])([H])C1([H])[H],BENPERIDOL,Benperidol,"1-{1-[4-(4-fluorophenyl)-4-oxobutyl]piperidin-4-yl}-1,3-dihydro-2H-benzimidazol-2-one",8213,DTXSID7045364,O=C1Nc2ccccc2N1C1CCN(CCCC(=O)c2ccc(F)cc2)CC1,"InChI=1S/C22H24FN3O2/c23-17-9-7-16(8-10-17)21(27)6-3-13-25-14-11-18(12-15-25)26-20-5-2-1-4-19(20)24-22(26)28/h1-2,4-5,7-10,18H,3,6,11-15H2,(H,24,28)",FEBOTPHFXYHVPL-UHFFFAOYSA-N,?,,"HANSCH,C ET AL. (1995)",3.91
103688,2065-37-4,2065-37-4,[H]C1=C([H])C([H])=C2C(=O)C(Br)=C([H])C(=O)C2=C1[H],"2-BROMO-1,4-NAPHTHOQUINONE","1,4-Naphthalenedione, 2-bromo- (9CI)","2-bromonaphthalene-1,4-dione",8215,DTXSID90174688,O=C1C=C(Br)C(=O)c2ccccc12,InChI=1S/C10H5BrO2/c11-8-5-9(12)6-3-1-2-4-7(6)10(8)13/h1-5H,KJOHPBJYGGFYBJ-UHFFFAOYSA-N,?,,"HANSCH,C ET AL. (1995)",2.44
103690,2070-61-3,2070-61-3,[H]C1=C([H])C([H])=C(N([H])S(=O)(=O)C([H])([H])F)C([H])=C1[H],FLUOROMETHANE SULFONANILIDE,,,8216,DTXSID30879089,O=S(=O)(CF)Nc1ccccc1,"InChI=1S/C7H8FNO2S/c8-6-12(10,11)9-7-4-2-1-3-5-7/h1-5,9H,6H2",WOPCCJAPUINYMV-UHFFFAOYSA-N,?,,"HANSCH,C ET AL. (1995)",1.35
103691,2075-46-9,2075-46-9,[H]C1=NN([H])C([H])=C1[N+](=O)[O-],4-NITROPYRAZOLE,"Pyrazole, 4-nitro-",4-nitro-1H-pyrazole,8217,DTXSID10174827,[O-][N+](=O)c1c[nH][n]c1,"InChI=1S/C3H3N3O2/c7-6(8)3-1-4-5-2-3/h1-2H,(H,4,5)",XORHNJQEWQGXCN-UHFFFAOYSA-N,?,,"HANSCH,C ET AL. (1995)",0.59
103693,2078-54-8,2078-54-8,[H]OC1=C(C([H])(C([H])([H])[H])C([H])([H])[H])C([H])=C([H])C([H])=C1C([H])(C([H])([H])[H])C([H])([H])[H],"PHENOL, 2,6-BIS(1-METHYLETHYL)-",Propofol,"2,6-di(propan-2-yl)phenol",8219,DTXSID6023523,CC(C)c1cccc(C(C)C)c1O,"InChI=1S/C12H18O/c1-8(2)10-6-5-7-11(9(3)4)12(10)13/h5-9,13H,1-4H3",OLBCVFGFOZPWHH-UHFFFAOYSA-N,?,,"HANSCH,C ET AL. (1995)",3.79
103694,2084-11-9,2084-11-9,[H]OC(=O)C([H])([H])OC1=C([H])C([H])=C([H])C(C([H])([H])C([H])([H])C([H])([H])[H])=C1[H],M-PROPYLPHENOXYACETIC ACID,PUBCHEM_23273854,C11H14O3,8220,DTXSID90632233,CCCc1cc(ccc1)OCC(O)=O,"InChI=1S/C11H14O3/c1-2-4-9-5-3-6-10(7-9)14-8-11(12)13/h3,5-7H,2,4,8H2,1H3,(H,12,13)",XICJKBMBWYCBPM-UHFFFAOYSA-N,?,,"HANSCH,C ET AL. (1995)",2.71
103695,2084-13-1,2084-13-1,[H]OC(=O)C1=C([H])C(C([H])([H])C(=O)O[H])=C([H])C([H])=C1[H],M-CARBOXYPHENYLACETIC ACID,3-(carboxymethyl)benzoic acid,C9H8O4,8221,DTXSID00296224,OC(=O)c1cc(CC(O)=O)ccc1,"InChI=1S/C9H8O4/c10-8(11)5-6-2-1-3-7(4-6)9(12)13/h1-4H,5H2,(H,10,11)(H,12,13)",QNUWEXSGZVBMDV-UHFFFAOYSA-N,?,,"HANSCH,C ET AL. (1995)",1.14
103697,2095-17-2,2095-17-2,[H]C1=C([H])C([H])=C2C(=C1[H])SC1=C([H])C([H])=C(Cl)C([H])=C1N2C([H])([H])C([H])([H])C([H])([H])N([H])[H],"10H-PHENOTHIAZINE-10-PROPANAMINE,2-CHLORO-",Didemethylchlorpromazine,3-(2-chlorophenothiazin-10-yl)propan-1-amine,8223,DTXSID00175126,NCCCN1c2ccccc2Sc2ccc(Cl)cc12,"InChI=1S/C15H15ClN2S/c16-11-6-7-15-13(10-11)18(9-3-8-17)12-4-1-2-5-14(12)19-15/h1-2,4-7,10H,3,8-9,17H2",ZTQZBABFEUDZFE-UHFFFAOYSA-N,?,,"WHELPTON,R (1989)",4.47
103698,2100-42-7,2100-42-7,[H]C1=C([H])C(OC([H])([H])[H])=C(Cl)C([H])=C1OC([H])([H])[H],"1,4-DIMETHOXY-2-CHLOROBENZENE","2-Chloro-1,4-dimethoxybenzene","2-chloro-1,4-dimethoxybenzene",8224,DTXSID3041403,COc1ccc(cc1Cl)OC,"InChI=1S/C8H9ClO2/c1-10-6-3-4-8(11-2)7(9)5-6/h3-5H,1-2H3",QMXZSRVFIWACJH-UHFFFAOYSA-N,?,,"NAKAGAWA,Y ET AL. (1992)",2.69
103699,2104-64-5,2104-64-5,[H]C1=C([H])C([H])=C(P(=S)(OC2=C([H])C([H])=C([N+](=O)[O-])C([H])=C2[H])OC([H])([H])C([H])([H])[H])C([H])=C1[H],EPN,EPN,O-ethyl O-(4-nitrophenyl) phenylphosphonothioate,8225,DTXSID7022174,CCOP(=S)(Oc1ccc(cc1)[N+]([O-])=O)c1ccccc1,"InChI=1S/C14H14NO4PS/c1-2-18-20(21,14-6-4-3-5-7-14)19-13-10-8-12(9-11-13)15(16)17/h3-11H,2H2,1H3",AIGRXSNSLVJMEA-UHFFFAOYSA-N,?,,CHEMICALS INSPECTION AND TESTING INSTITU (1992),4.78
103701,2113-47-5,2113-47-5,[H]C1=C([H])C([H])=C(C2=C([H])C([H])=C([H])C([H])=C2N([H])C(=O)C([H])([H])[H])C([H])=C1[H],2-PHENYLACETANILIDE,2-Acetamidobiphenyl,N-(biphenyl-2-yl)acetamide,8227,DTXSID6036837,CC(=O)Nc1ccccc1-c1ccccc1,"InChI=1S/C14H13NO/c1-11(16)15-14-10-6-5-9-13(14)12-7-3-2-4-8-12/h2-10H,1H3,(H,15,16)",IXCZSZXIGHWLEJ-UHFFFAOYSA-N,?,,"NAKAGAWA,Y ET AL. (1992)",2.02
103702,2113-57-7,2113-57-7,[H]C1=C([H])C([H])=C(C2=C([H])C([H])=C([H])C(Br)=C2[H])C([H])=C1[H],3-BROMOBIPHENYL,3-Bromobiphenyl,3-bromobiphenyl,8228,DTXSID5024639,Brc1cc(ccc1)-c1ccccc1,InChI=1S/C12H9Br/c13-12-8-4-7-11(9-12)10-5-2-1-3-6-10/h1-9H,USYQKCQEVBFJRP-UHFFFAOYSA-N,?,,"DOUCETTE,WJ & ANDREN,AW (1987)",4.85
103703,2113-58-8,2113-58-8,[H]C1=C([H])C([H])=C(C2=C([H])C([N+](=O)[O-])=C([H])C([H])=C2[H])C([H])=C1[H],3-NITROBIPHENYL,"1,1'-Biphenyl, 3-nitro- (9CI)",1-nitro-3-phenylbenzene,8229,DTXSID00175363,[O-][N+](=O)c1cc(ccc1)-c1ccccc1,InChI=1S/C12H9NO2/c14-13(15)12-8-4-7-11(9-12)10-5-2-1-3-6-10/h1-9H,FYRPEHRWMVMHQM-UHFFFAOYSA-N,?,,"HANSCH,C ET AL. (1995)",3.87
103705,2114-20-7,2114-20-7,[H]N([H])C(=O)OC([H])([H])C([H])([H])C([H])([H])C([H])([H])C([H])([H])C([H])([H])[H],O-HEXYL CARBAMATE,"Carbamic acid, hexyl ester",Hexyl carbamate,8231,DTXSID20175380,CCCCCCOC(N)=O,"InChI=1S/C7H15NO2/c1-2-3-4-5-6-10-7(8)9/h2-6H2,1H3,(H2,8,9)",ROASJEHPZNKHOF-UHFFFAOYSA-N,?,,"HANSCH,C ET AL. (1995)",1.85
103706,2116-65-6,2116-65-6,[H]C1=NC([H])=C([H])C(C([H])([H])C2=C([H])C([H])=C([H])C([H])=C2[H])=C1[H],4-BENZYLPYRIDINE,"Pyridine, 4-(phenylmethyl)-",4-(phenylmethyl)pyridine,8232,DTXSID5062188,C(c1ccccc1)c1cc[n]cc1,"InChI=1S/C12H11N/c1-2-4-11(5-3-1)10-12-6-8-13-9-7-12/h1-9H,10H2",DBOLXXRVIFGDTI-UHFFFAOYSA-N,?,,"HANSCH,C ET AL. (1995)",2.62