ChemID,source_casrn,CAS,SMILES,NAME,preferred_name,iupac,MPID,dsstox_substance_id,Canonical_QSARr,InChI_Code_QSARr,InChI Key_QSARr,Salt_Solvent,Salt_Solvent_ID,Kow Reference,LogP
102859,721-50-6,721-50-6,[H]C1=C([H])C([H])=C(C([H])([H])[H])C(N([H])C(=O)C([H])(N([H])C([H])([H])C([H])([H])C([H])([H])[H])C([H])([H])[H])=C1[H],PRILOCAINE,Prilocaine,N-(2-methylphenyl)-N~2~-propylalaninamide,7438,DTXSID7031955,Cc1ccccc1NC(=O)C(C)NCCC,"InChI=1S/C13H20N2O/c1-4-9-14-11(3)13(16)15-12-8-6-5-7-10(12)2/h5-8,11,14H,4,9H2,1-3H3,(H,15,16)",MVFGUOIZUNYYSO-UHFFFAOYSA-N,?,,"HANSCH,C ET AL. (1995)",2.11
102860,723-46-6,723-46-6,[H]C1=C([H])C(S(=O)(=O)N([H])C2=NOC(C([H])([H])[H])=C2[H])=C([H])C([H])=C1N([H])[H],SULFAMETHOXAZOLE,Sulfamethoxazole,"4-amino-N-(5-methyl-1,2-oxazol-3-yl)benzenesulfonamide",7439,DTXSID8026064,Cc1cc(NS(=O)(=O)c2ccc(N)cc2)[n]o1,"InChI=1S/C10H11N3O3S/c1-7-6-10(12-16-7)13-17(14,15)9-4-2-8(11)3-5-9/h2-6H,11H2,1H3,(H,12,13)",JLKIGFTWXXRPMT-UHFFFAOYSA-N,?,,"HANSCH,C ET AL. (1995)",0.89
102861,723-57-9,723-57-9,[H]C1=C2C(=C([H])C([H])=C1C(F)(F)F)S(=O)(=O)N=C(C([H])([H])[H])N2[H],124-BENZTHIADIZ-1-O2-3-ME-6-CF3,"4H-1,2,4-Benzothiadiazine, 3-methyl-6-trifluoromethyl-, 1,1-dioxide","3-methyl-6-(trifluoromethyl)-4H-benzo[e][1,2,4]thiadiazine 1,1-dioxide",7440,DTXSID60222625,CC1Nc2cc(ccc2S(=O)(=O)N=1)C(F)(F)F,"InChI=1S/C9H7F3N2O2S/c1-5-13-7-4-6(9(10,11)12)2-3-8(7)17(15,16)14-5/h2-4H,1H3,(H,13,14)",YLOIUIYEPKSXIK-UHFFFAOYSA-N,?,,"HANSCH,C ET AL. (1995)",1.59
102863,726-78-3,726-78-3,[H]C1=C(C2(C([H])([H])C([H])([H])[H])C(=O)N([H])C(=O)N(C([H])([H])[H])C2=O)C([H])([H])C([H])([H])C([H])([H])C1([H])[H],N-METHYLCYCLOBARBITAL,,,7442,DTXSID50874455,CCC1(C2CCCCC=2)C(=O)NC(=O)N(C)C1=O,"InChI=1S/C13H18N2O3/c1-3-13(9-7-5-4-6-8-9)10(16)14-12(18)15(2)11(13)17/h7H,3-6,8H2,1-2H3,(H,14,16,18)",WPRPRRYHBBCMLM-UHFFFAOYSA-N,?,,"HANSCH,C ET AL. (1995)",2.25
102864,726-92-1,726-92-1,[H]C1=C([H])C(C(=O)N([H])P(=O)(N2C([H])([H])C2([H])[H])N2C([H])([H])C2([H])[H])=C([H])C([H])=C1F,FLUORBENZOTEF,,,7443,DTXSID70876390,O=C(NP(=O)(N1CC1)N1CC1)c1ccc(F)cc1,"InChI=1S/C11H13FN3O2P/c12-10-3-1-9(2-4-10)11(16)13-18(17,14-5-6-14)15-7-8-15/h1-4H,5-8H2,(H,13,16,17)",GDNAXBLBWKDNIR-UHFFFAOYSA-N,?,,BIOBYTE STARLIST (2009),0.86
102865,728-88-1,728-88-1,[H]C1=C([H])C(C([H])([H])[H])=C([H])C([H])=C1C(=O)C([H])(C([H])([H])[H])C([H])([H])N1C([H])([H])C([H])([H])C([H])([H])C([H])([H])C1([H])[H],"1-PROPANONE, 2-METHYL-1-(4-METHYLPHENYL)-3-(1-PI",Tolperisone,2-methyl-1-(4-methylphenyl)-3-(piperidin-1-yl)propan-1-one,7444,DTXSID8023686,Cc1ccc(cc1)C(=O)C(C)CN1CCCCC1,"InChI=1S/C16H23NO/c1-13-6-8-15(9-7-13)16(18)14(2)12-17-10-4-3-5-11-17/h6-9,14H,3-5,10-12H2,1-2H3",FSKFPVLPFLJRQB-UHFFFAOYSA-N,?,,SANGSTER (1994),3.65
102867,732-11-6,732-11-6,[H]C1=C([H])C([H])=C2C(=O)N(C([H])([H])SP(=S)(OC([H])([H])[H])OC([H])([H])[H])C(=O)C2=C1[H],PHOSMET,Phosmet,"S-[(1,3-dioxo-1,3-dihydro-2H-isoindol-2-yl)methyl] O,O-dimethyl phosphorodithioate",7446,DTXSID5024261,COP(=S)(OC)SCN1C(=O)c2ccccc2C1=O,"InChI=1S/C11H12NO4PS2/c1-15-17(18,16-2)19-7-12-10(13)8-5-3-4-6-9(8)11(12)14/h3-6H,7H2,1-2H3",LMNZTLDVJIUSHT-UHFFFAOYSA-N,?,,"HANSCH,C ET AL. (1995)",2.78
102868,732-26-3,732-26-3,[H]OC1=C(C(C([H])([H])[H])(C([H])([H])[H])C([H])([H])[H])C([H])=C(C(C([H])([H])[H])(C([H])([H])[H])C([H])([H])[H])C([H])=C1C(C([H])([H])[H])(C([H])([H])[H])C([H])([H])[H],"2,4,6-TRI(TERT-BUTYL)PHENOL","2,4,6-Tris(tert-butyl)phenol","2,4,6-tri-tert-butylphenol",7447,DTXSID2021311,CC(C)(C)c1cc(c(O)c(c1)C(C)(C)C)C(C)(C)C,"InChI=1S/C18H30O/c1-16(2,3)12-10-13(17(4,5)6)15(19)14(11-12)18(7,8)9/h10-11,19H,1-9H3",PFEFOYRSMXVNEL-UHFFFAOYSA-N,?,,CHEMICALS INSPECTION AND TESTING INSTITU (1992),6.06
102869,738-70-5,738-70-5,[H]C1=NC(N([H])[H])=NC(N([H])[H])=C1C([H])([H])C1=C([H])C(OC([H])([H])[H])=C(OC([H])([H])[H])C(OC([H])([H])[H])=C1[H],TRIMETHOPRIM,Trimethoprim,"5-(3,4,5-trimethoxybenzyl)pyrimidine-2,4-diamine",7448,DTXSID3023712,COc1c(cc(Cc2c[n]c(N)[n]c2N)cc1OC)OC,"InChI=1S/C14H18N4O3/c1-19-10-5-8(6-11(20-2)12(10)21-3)4-9-7-17-14(16)18-13(9)15/h5-7H,4H2,1-3H3,(H4,15,16,17,18)",IEDVJHCEMCRBQM-UHFFFAOYSA-N,?,,"HANSCH,C ET AL. (1995)",0.91
102871,742-20-1,742-20-1,[H]C1=C(Cl)C(S(=O)(=O)N([H])[H])=C([H])C2=C1N([H])C([H])(C([H])([H])C1([H])C([H])([H])C([H])([H])C([H])([H])C1([H])[H])N([H])S2(=O)=O,3-Cyclopentylmethylhydrochlorothiazide,Cyclopenthiazide,"6-chloro-3-(cyclopentylmethyl)-3,4-dihydro-2H-1,2,4-benzothiadiazine-7-sulfonamide 1,1-dioxide",7450,DTXSID4022868,NS(=O)(=O)c1cc2c(cc1Cl)NC(CC1CCCC1)NS2(=O)=O,"InChI=1S/C13H18ClN3O4S2/c14-9-6-10-12(7-11(9)22(15,18)19)23(20,21)17-13(16-10)5-8-3-1-2-4-8/h6-8,13,16-17H,1-5H2,(H2,15,18,19)",BKYKPTRYDKTTJY-UHFFFAOYSA-N,?,,"HANSCH,C ET AL. (1995)",1.27
102872,745-65-3,745-65-3,[H]OC(=O)C([H])([H])C([H])([H])C([H])([H])C([H])([H])C([H])([H])C([H])([H])C1([H])C(=O)C([H])([H])C([H])(O[H])C1([H])/C([H])=C(\[H])C([H])(O[H])C([H])([H])C([H])([H])C([H])([H])C([H])([H])C([H])([H])[H],Prostaglandin E1,Alprostadil,"(11alpha,13E,15S)-11,15-dihydroxy-9-oxoprost-13-en-1-oic acid",7451,DTXSID9022578,CCCCCC(O)C=CC1C(CCCCCCC(O)=O)C(=O)CC1O,"InChI=1S/C20H34O5/c1-2-3-6-9-15(21)12-13-17-16(18(22)14-19(17)23)10-7-4-5-8-11-20(24)25/h12-13,15-17,19,21,23H,2-11,14H2,1H3,(H,24,25)/b13-12+",GMVPRGQOIOIIMI-OUKQBFOZSA-N,?,,"AVDEEF,A ET AL. (1995)",3.2
102873,746-53-2,746-53-2,[H]C1=C2C(=O)C3=C(C2=C([N+](=O)[O-])C([H])=C1[N+](=O)[O-])C([N+](=O)[O-])=C([H])C([N+](=O)[O-])=C3[H],"9H-FLUOREN-9-ONE, 2,4,5,7-TETRANITRO-","9H-Fluoren-9-one, 2,4,5,7-tetranitro-","2,4,5,7-Tetranitrofluoren-9-one",7452,DTXSID7061067,[O-][N+](=O)c1cc(cc2c1-c1c(cc(cc1[N+]([O-])=O)[N+]([O-])=O)C2=O)[N+]([O-])=O,InChI=1S/C13H4N4O9/c18-13-7-1-5(14(19)20)3-9(16(23)24)11(7)12-8(13)2-6(15(21)22)4-10(12)17(25)26/h1-4H,JOERSAVCLPYNIZ-UHFFFAOYSA-N,?,,"DEBNATH,AK & HANSCH,C (1992)",2.4
102875,753-90-2,753-90-2,[H]N([H])C([H])([H])C(F)(F)F,"2,2,2-TRIFLUOROETHYLAMINE","Ethanamine, 2,2,2-trifluoro-","2,2,2-trifluoroacetonitrile",7454,DTXSID6061070,NCC(F)(F)F,"InChI=1S/C2H4F3N/c3-2(4,5)1-6/h1,6H2",KIPSRYDSZQRPEA-UHFFFAOYSA-N,?,,"HANSCH,C ET AL. (1995)",0.24
102876,756-79-6,756-79-6,[H]C([H])([H])OP(=O)(OC([H])([H])[H])C([H])([H])[H],"Phosphonic acid, methyl-, dimethyl ester",Dimethyl methylphosphonate,dimethyl methylphosphonate,7455,DTXSID0020494,CP(=O)(OC)OC,"InChI=1S/C3H9O3P/c1-5-7(3,4)6-2/h1-3H3",VONWDASPFIQPDY-UHFFFAOYSA-N,?,,"KRIKORIAN,SE ET AL. (1987)",-0.61
102877,758-96-3,758-96-3,[H]C([H])([H])N(C(=O)C([H])([H])C([H])([H])[H])C([H])([H])[H],"PROPANAMIDE, N,N-DIMETHYL-","Propanamide, N,N-dimethyl-","N,N-dimethylpropanamide",7456,DTXSID1061077,CCC(=O)N(C)C,"InChI=1S/C5H11NO/c1-4-5(7)6(2)3/h4H2,1-3H3",MBHINSULENHCMF-UHFFFAOYSA-N,?,,"HANSCH,C ET AL. (1995)",-0.11
102879,759-94-4,759-94-4,[H]C([H])([H])C([H])([H])SC(=O)N(C([H])([H])C([H])([H])C([H])([H])[H])C([H])([H])C([H])([H])C([H])([H])[H],EPTAM (EPTC),EPTC,S-ethyl dipropylcarbamothioate,7458,DTXSID1024091,CCSC(=O)N(CCC)CCC,"InChI=1S/C9H19NOS/c1-4-7-10(8-5-2)9(11)12-6-3/h4-8H2,1-3H3",GUVLYNGULCJVDO-UHFFFAOYSA-N,?,,"HANSCH,C ET AL. (1995)",3.21
102880,760-60-1,760-60-1,[H]N([H])C(=O)N(N=O)C([H])([H])C([H])(C([H])([H])[H])C([H])([H])[H],"UREA, N-(2-METHYLPROPYL)-N-NITROSO-",N-Nitroso-N-isobutylurea,1-(2-methylpropyl)-1-nitrosourea,7459,DTXSID0020999,CC(C)CN(N=O)C(N)=O,"InChI=1S/C5H11N3O2/c1-4(2)3-8(7-10)5(6)9/h4H,3H2,1-2H3,(H2,6,9)",SRSYSQPJIQFKKN-UHFFFAOYSA-N,?,,"HANSCH,C ET AL. (1995)",1.04
102881,764-13-6,764-13-6,[H]C(C([H])=C(C([H])([H])[H])C([H])([H])[H])=C(C([H])([H])[H])C([H])([H])[H],"2,5-DIMETHYL-2,4-HEXADIENE","2,5-Dimethyl-2,4-hexadiene","2,5-dimethylhexa-2,4-diene",7460,DTXSID3022116,CC(C)=CC=C(C)C,"InChI=1S/C8H14/c1-7(2)5-6-8(3)4/h5-6H,1-4H3",DZPCYXCBXGQBRN-UHFFFAOYSA-N,?,,CHEMICALS INSPECTION AND TESTING INSTITU (1992),3.5
102883,765-30-0,765-30-0,[H]N([H])C1([H])C([H])([H])C1([H])[H],CYCLOPROPANAMINE,Cyclopropanamine,Cyclopropanamine,7462,DTXSID9061099,NC1CC1,"InChI=1S/C3H7N/c4-3-1-2-3/h3H,1-2,4H2",HTJDQJBWANPRPF-UHFFFAOYSA-N,?,,"HANSCH,C ET AL. (1995)",0.07
102884,765-43-5,765-43-5,[H]C([H])([H])C(=O)C1([H])C([H])([H])C1([H])[H],CYCLOPROPYL METHYL KETONE,Cyclopropyl methyl ketone,1-cyclopropylethanone,7463,DTXSID9074854,CC(=O)C1CC1,"InChI=1S/C5H8O/c1-4(6)5-2-3-5/h5H,2-3H2,1H3",HVCFCNAITDHQFX-UHFFFAOYSA-N,?,,"HANSCH,C ET AL. (1995)",0.49
102885,766-09-6,766-09-6,[H]C([H])([H])C([H])([H])N1C([H])([H])C([H])([H])C([H])([H])C([H])([H])C1([H])[H],"PIPERIDINE, 1-ETHYL-","Piperidine, 1-ethyl-",1-Ethylpiperidine,7464,DTXSID1061102,CCN1CCCCC1,"InChI=1S/C7H15N/c1-2-8-6-4-3-5-7-8/h2-7H2,1H3",HTLZVHNRZJPSMI-UHFFFAOYSA-N,?,,SANGSTER (1993),1.75
102887,766-51-8,766-51-8,[H]C1=C([H])C([H])=C(OC([H])([H])[H])C(Cl)=C1[H],O-CHLOROANISOLE,o-Chloroanisole,1-Chloro-2-methoxybenzene,7466,DTXSID1061104,COc1ccccc1Cl,"InChI=1S/C7H7ClO/c1-9-7-5-3-2-4-6(7)8/h2-5H,1H3",QGRPVMLBTFGQDQ-UHFFFAOYSA-N,?,,"NAKAGAWA,Y ET AL. (1992)",2.68
102889,767-00-0,767-00-0,[H]OC1=C([H])C([H])=C(C#N)C([H])=C1[H],P-CYANOPHENOL,4-Hydroxybenzonitrile,4-hydroxybenzonitrile,7467,DTXSID9052509,N#Cc1ccc(O)cc1,"InChI=1S/C7H5NO/c8-5-6-1-3-7(9)4-2-6/h1-4,9H",CVNOWLNNPYYEOH-UHFFFAOYSA-N,?,,"HANSCH,C ET AL. (1995)",1.6
102890,768-03-6,768-03-6,[H]C([H])=C([H])C(=O)C1=C([H])C([H])=C([H])C([H])=C1[H],ACRYLOPHENONE,3-Oxo-3-phenylpropene,1-phenylprop-2-en-1-one,7468,DTXSID30227607,C=CC(=O)c1ccccc1,"InChI=1S/C9H8O/c1-2-9(10)8-6-4-3-5-7-8/h2-7H,1H2",KUIZKZHDMPERHR-UHFFFAOYSA-N,?,,"HANSCH,C ET AL. (1995)",1.88
102892,768-59-2,768-59-2,[H]OC([H])([H])C1=C([H])C([H])=C(C([H])([H])C([H])([H])[H])C([H])=C1[H],4-Ethylbenzyl alcohol,4-Ethylbenzyl alcohol,(4-ethylphenyl)methanol,7470,DTXSID00227614,CCc1ccc(CO)cc1,"InChI=1S/C9H12O/c1-2-8-3-5-9(7-10)6-4-8/h3-6,10H,2,7H2,1H3",YSLBFFIVJGJBSA-UHFFFAOYSA-N,?,,DAYLIGHT (1999),2.27
102893,768-66-1,768-66-1,[H]N1C(C([H])([H])[H])(C([H])([H])[H])C([H])([H])C([H])([H])C([H])([H])C1(C([H])([H])[H])C([H])([H])[H],"PIPERIDINE, 2,2,6,6-TETRAMETHYL-","Piperidine, 2,2,6,6-tetramethyl-","2,2,6,6-Tetramethylpiperidine",7471,DTXSID0061113,CC1(C)CCCC(C)(C)N1,"InChI=1S/C9H19N/c1-8(2)6-5-7-9(3,4)10-8/h10H,5-7H2,1-4H3",RKMGAJGJIURJSJ-UHFFFAOYSA-N,?,,"HANSCH,C ET AL. (1995)",2.15
102894,768-94-5,768-94-5,[H]N([H])C12C([H])([H])C3([H])C([H])([H])C([H])(C([H])([H])C([H])(C3([H])[H])C1([H])[H])C2([H])[H],AMANTADINE,Amantadine,"tricyclo[3.3.1.1~3,7~]decan-1-amine",7472,DTXSID8022117,NC12CC3CC(C1)CC(C2)C3,"InChI=1S/C10H17N/c11-10-4-7-1-8(5-10)3-9(2-7)6-10/h7-9H,1-6,11H2",DKNWSYNQZKUICI-UHFFFAOYSA-N,?,,"HANSCH,C ET AL. (1995)",2.44
102896,769-92-6,769-92-6,[H]C1=C([H])C(C(C([H])([H])[H])(C([H])([H])[H])C([H])([H])[H])=C([H])C([H])=C1N([H])[H],"BENZENAMINE, 4-(1,1-DIMETHYLETHYL)",4-tert-Butylaniline,4-tert-butylaniline,7474,DTXSID0048181,CC(C)(C)c1ccc(N)cc1,"InChI=1S/C10H15N/c1-10(2,3)8-4-6-9(11)7-5-8/h4-7H,11H2,1-3H3",WRDWWAVNELMWAM-UHFFFAOYSA-N,?,,"HANSCH,C ET AL. (1995)",2.7
102897,770-09-2,770-09-2,[H]C1=C([H])C([H])=C(C([H])([H])[Si](C([H])([H])[H])(C([H])([H])[H])C([H])([H])[H])C([H])=C1[H],BENZYLTRIMETHYLSILANE,Trimethylbenzylsilane,trimethyl-(phenylmethyl)silane,7475,DTXSID5061116,C[Si](C)(C)Cc1ccccc1,"InChI=1S/C10H16Si/c1-11(2,3)9-10-7-5-4-6-8-10/h4-8H,9H2,1-3H3",MRIWRLGWLMRJIW-UHFFFAOYSA-N,?,,"HANSCH,C ET AL. (1995)",4.13
102898,770-19-4,770-19-4,[H]C1=C([H])C(N([H])C(=O)N([H])[H])=C([H])C(F)=C1[H],M-FLUOROPHENYLUREA,"Urea, (m-fluorophenyl)-",(3-fluorophenyl)urea,7476,DTXSID40227815,NC(=O)Nc1cccc(F)c1,"InChI=1S/C7H7FN2O/c8-5-2-1-3-6(4-5)10-7(9)11/h1-4H,(H3,9,10,11)",OLVWURSZQFCLCZ-UHFFFAOYSA-N,?,,"HANSCH,C ET AL. (1995)",1.29
102900,771-50-6,771-50-6,[H]OC(=O)C1=C([H])N([H])C2=C([H])C([H])=C([H])C([H])=C12,"INDOLE, 3-CARBOXYLIC ACID",Indole-3-carboxylic acid,1H-Indole-3-carboxylic acid,7478,DTXSID50227886,OC(=O)c1c[nH]c2ccccc12,"InChI=1S/C9H7NO2/c11-9(12)7-5-10-8-4-2-1-3-6(7)8/h1-5,10H,(H,11,12)",KMAKOBLIOCQGJP-UHFFFAOYSA-N,?,,"HANSCH,C ET AL. (1995)",1.99
102901,771-61-9,771-61-9,[H]OC1=C(F)C(F)=C(F)C(F)=C1F,PENTAFLUOROPHENOL,Pentafluorophenol,"2,3,4,5,6-Pentafluorophenol",7479,DTXSID9061120,Oc1c(F)c(F)c(F)c(F)c1F,InChI=1S/C6HF5O/c7-1-2(8)4(10)6(12)5(11)3(1)9/h12H,XBNGYFFABRKICK-UHFFFAOYSA-N,?,,"HANSCH,C ET AL. (1995)",3.23
102902,771-97-1,771-97-1,[H]C1=C([H])C2=C([H])C(N([H])[H])=C(N([H])[H])C([H])=C2C([H])=C1[H],"2,3-NAPHTHALENEDIAMINE","2,3-Naphthalenediamine","naphthalene-2,3-diamine",7480,DTXSID4061121,Nc1cc2ccccc2cc1N,"InChI=1S/C10H10N2/c11-9-5-7-3-1-2-4-8(7)6-10(9)12/h1-6H,11-12H2",XTBLDMQMUSHDEN-UHFFFAOYSA-N,?,,"SCHULTZ,TW & APPLEHANS,FM (1985)",1.54
102904,774-40-3,774-40-3,[H]OC([H])(C(=O)OC([H])([H])C([H])([H])[H])C1=C([H])C([H])=C([H])C([H])=C1[H],"MANDELIC ACID, ETHYL ESTER",Ethyl mandelate,ethyl hydroxy(phenyl)acetate,7482,DTXSID6057829,CCOC(=O)C(O)c1ccccc1,"InChI=1S/C10H12O3/c1-2-13-10(12)9(11)8-6-4-3-5-7-8/h3-7,9,11H,2H2,1H3",SAXHIDRUJXPDOD-UHFFFAOYSA-N,?,,"HANSCH,C ET AL. (1995)",1.53
102905,776-35-2,776-35-2,[H]C1=C([H])C([H])=C2C(=C1[H])C1=C([H])C([H])=C([H])C([H])=C1C([H])([H])C2([H])[H],"9,10-DIHYDROPHENANTHRENE","9,10-Dihydrophenanthrene","9,10-Dihydrophenanthrene",7483,DTXSID20228264,C1Cc2ccccc2-c2ccccc21,"InChI=1S/C14H12/c1-3-7-13-11(5-1)9-10-12-6-2-4-8-14(12)13/h1-8H,9-10H2",XXPBFNVKTVJZKF-UHFFFAOYSA-N,?,,"HANSCH,C ET AL. (1995)",4.52
102906,776-41-0,776-41-0,[H]C1=C([H])C([H])=C2C(=C1[H])C(C(=O)OC([H])([H])C([H])([H])[H])=C([H])N2[H],"INDOLE-3-CARBOXYLIC ACID,ETHYL ESTER",Ethyl indole-3-carboxylate,C11H11NO2,7484,DTXSID70289769,CCOC(=O)c1c[nH]c2ccccc12,"InChI=1S/C11H11NO2/c1-2-14-11(13)9-7-12-10-6-4-3-5-8(9)10/h3-7,12H,2H2,1H3",XOUHVMVYFOXTMN-UHFFFAOYSA-N,?,,BIOBYTE STARLIST (2009),3.04
102908,777-59-3,777-59-3,[H]C1=C([H])C(N([H])C(=O)N(N=O)C([H])([H])[H])=C([H])C([H])=C1F,1-ME-1-NITROSO-3-(P-F PH)UREA,"Urea, 3-(p-fluorophenyl)-1-methyl-1-nitroso-",3-(4-fluorophenyl)-1-methyl-1-nitrosourea,7486,DTXSID00228328,CN(N=O)C(=O)Nc1ccc(F)cc1,"InChI=1S/C8H8FN3O2/c1-12(11-14)8(13)10-7-4-2-6(9)3-5-7/h2-5H,1H3,(H,10,13)",UBHNEXDJFIFPFN-UHFFFAOYSA-N,?,,"HANSCH,C ET AL. (1995)",1.88
102909,779-02-2,779-02-2,[H]C1=C([H])C2=C([H])C3=C(C([H])=C([H])C([H])=C3[H])C(C([H])([H])[H])=C2C([H])=C1[H],9-METHYLANTHRACENE,9-Methylanthracene,9-METHYLANTHRACENE,7487,DTXSID3061134,Cc1c2ccccc2cc2ccccc21,"InChI=1S/C15H12/c1-11-14-8-4-2-6-12(14)10-13-7-3-5-9-15(11)13/h2-10H,1H3",CPGPAVAKSZHMBP-UHFFFAOYSA-N,?,,SANGSTER (1993),5.07
102910,779-84-0,NOCAS_870775,[H]OC1=C([H])C([H])=C([H])C([H])=C1/C([H])=N/C1=C([H])C([H])=C([H])C([H])=C1[H],2-HYDROXYBENZALANILINE,,,7488,DTXSID50870775,Oc1ccccc1C=Nc1ccccc1,"InChI=1S/C13H11NO/c15-13-9-5-4-6-11(13)10-14-12-7-2-1-3-8-12/h1-10,15H/b14-10+",QIYHCQVVYSSDTI-GXDHUFHOSA-N,?,,"HANSCH,C ET AL. (1995)",3.09
102912,780-59-6,780-59-6,[H]C([H])=C([H])C([H])([H])C1(C([H])([H])C([H])=C([H])[H])C(=O)N([H])C(=O)N(C([H])([H])[H])C1=O,N-METHYLALLOBARBITAL,"Barbituric acid, 5,5-diallyl-1-methyl-","1-methyl-5,5-di(prop-2-enyl)-1,3-diazinane-2,4,6-trione",7490,DTXSID10228652,CN1C(=O)NC(=O)C(CC=C)(CC=C)C1=O,"InChI=1S/C11H14N2O3/c1-4-6-11(7-5-2)8(14)12-10(16)13(3)9(11)15/h4-5H,1-2,6-7H2,3H3,(H,12,14,16)",FXHBIVKHYQDNOX-UHFFFAOYSA-N,?,,"HANSCH,C ET AL. (1995)",1.55
102913,780-69-8,780-69-8,[H]C1=C([H])C([H])=C([Si](OC([H])([H])C([H])([H])[H])(OC([H])([H])C([H])([H])[H])OC([H])([H])C([H])([H])[H])C([H])=C1[H],"SILANE, TRIETHOXYPHENYL-",Triethoxy(phenyl)silane,triethoxy(phenyl)silane,7491,DTXSID8044462,CCO[Si](OCC)(OCC)c1ccccc1,"InChI=1S/C12H20O3Si/c1-4-13-16(14-5-2,15-6-3)12-10-8-7-9-11-12/h7-11H,4-6H2,1-3H3",JCVQKRGIASEUKR-UHFFFAOYSA-N,?,,"HANSCH,C ET AL. (1995)",2.99
102914,781-43-1,781-43-1,[H]C1=C([H])C2=C(C([H])=C1[H])C(C([H])([H])[H])=C1C([H])=C([H])C([H])=C([H])C1=C2C([H])([H])[H],"9,10-DIMETHYLANTHRACENE","9,10-Dimethylanthracene","9,10-Dimethylanthracene",7492,DTXSID8073928,Cc1c2ccccc2c(C)c2ccccc12,"InChI=1S/C16H14/c1-11-13-7-3-5-9-15(13)12(2)16-10-6-4-8-14(11)16/h3-10H,1-2H3",JTGMTYWYUZDRBK-UHFFFAOYSA-N,?,,SANGSTER (1993),5.69
102916,789-61-7,789-61-7,[H]OC([H])([H])C1([H])OC([H])(N2C([H])=NC3=C2N=C(N([H])[H])N([H])C3=S)C([H])([H])C1([H])O[H],B-2'-DEOXYTHIOGUANOSINE,beta-Thioguanosine deoxyriboside,"2-amino-9-(2-deoxy-beta-D-erythro-pentofuranosyl)-1,9-dihydro-6H-purine-6-thione",7494,DTXSID4021345,NC1NC(=S)c2[n]c[n](C3CC(O)C(CO)O3)c2N=1,"InChI=1S/C10H13N5O3S/c11-10-13-8-7(9(19)14-10)12-3-15(8)6-1-4(17)5(2-16)18-6/h3-6,16-17H,1-2H2,(H3,11,13,14,19)",SCVJRXQHFJXZFZ-UHFFFAOYSA-N,?,,"HANSCH,C ET AL. (1995)",-0.56
102917,790-53-4,790-53-4,[H]C1=C([H])C(C([H])=C(C(=O)OC([H])([H])C([H])([H])[H])C(=O)OC([H])([H])C([H])([H])[H])=C([H])C([H])=C1F,"DIETHYLMALONATE,4-F BENZAL",diethyl 2-[(4-fluorophenyl)methylene]malonate,C14H15FO4,7495,DTXSID00377567,CCOC(=O)C(=Cc1ccc(F)cc1)C(=O)OCC,"InChI=1S/C14H15FO4/c1-3-18-13(16)12(14(17)19-4-2)9-10-5-7-11(15)8-6-10/h5-9H,3-4H2,1-2H3",OOZVIHFMGQDKDB-UHFFFAOYSA-N,?,,"HANSCH,C ET AL. (1995)",3.1
102918,791-28-6,791-28-6,[H]C1=C([H])C([H])=C(P(=O)(C2=C([H])C([H])=C([H])C([H])=C2[H])C2=C([H])C([H])=C([H])C([H])=C2[H])C([H])=C1[H],TRIPHENYLPHOSPHINE OXIDE,Triphenylphosphine oxide,triphenylphosphane oxide,7496,DTXSID2022121,O=P(c1ccccc1)(c1ccccc1)c1ccccc1,"InChI=1S/C18H15OP/c19-20(16-10-4-1-5-11-16,17-12-6-2-7-13-17)18-14-8-3-9-15-18/h1-15H",FIQMHBFVRAXMOP-UHFFFAOYSA-N,?,,"HANSCH,C ET AL. (1995)",2.83
102921,816-57-9,816-57-9,[H]N([H])C(=O)N(N=O)C([H])([H])C([H])([H])C([H])([H])[H],1-PROPYL-1-NITROSOUREA,N-Propyl-N-nitrosourea,1-nitroso-1-propylurea,7498,DTXSID0021204,CCCN(N=O)C(N)=O,"InChI=1S/C4H9N3O2/c1-2-3-7(6-9)4(5)8/h2-3H2,1H3,(H2,5,8)",YGGSSUISOYLCBF-UHFFFAOYSA-N,?,,"HANSCH,C ET AL. (1995)",0.3
102922,817-99-2,817-99-2,[H]N=[N+]=C([H])C(=O)N([H])C([H])([H])C(=O)N([H])[H],"ACETAMIDE, N-(2-AMINO-2-OXOETHYL)-2-DIAZO-",,,7499,DTXSID10878737,NC(=O)CNC(=O)C=[N+]=N,"InChI=1S/C4H6N4O2/c5-3(9)1-7-4(10)2-8-6/h2,6H,1H2,(H2-,5,7,9,10)/p+1",NVNLTJAHBQLDFX-UHFFFAOYSA-O,?,,"HANSCH,C ET AL. (1995)",-1.26
102923,818-61-1,818-61-1,[H]OC([H])([H])C([H])([H])OC(=O)C([H])=C([H])[H],2-HYDROXYETHYL ACRYLATE,2-Hydroxyethyl acrylate,2-hydroxyethyl prop-2-enoate,7500,DTXSID2022123,C=CC(=O)OCCO,"InChI=1S/C5H8O3/c1-2-5(7)8-4-3-6/h2,6H,1,3-4H2",OMIGHNLMNHATMP-UHFFFAOYSA-N,?,,"HANSCH,C ET AL. (1995)",-0.21
102925,821-10-3,821-10-3,[H]C([H])(Cl)C#CC([H])([H])Cl,"2-BUTYNE, 1,4-DICHLORO-","1,4-Dichloro-2-butyne","1,4-Dichlorobut-2-yne",7502,DTXSID0061165,ClCC#CCCl,InChI=1S/C4H4Cl2/c5-3-1-2-4-6/h3-4H2,RCHDLEVSZBOHOS-UHFFFAOYSA-N,?,,"HANSCH,C ET AL. (1995)",2.01
102926,821-55-6,821-55-6,[H]C([H])([H])C(=O)C([H])([H])C([H])([H])C([H])([H])C([H])([H])C([H])([H])C([H])([H])C([H])([H])[H],2-NONANONE,2-Nonanone,nonan-2-one,7503,DTXSID2022125,CCCCCCCC(C)=O,"InChI=1S/C9H18O/c1-3-4-5-6-7-8-9(2)10/h3-8H2,1-2H3",VKCYHJWLYTUGCC-UHFFFAOYSA-N,?,,"HANSCH,C ET AL. (1995)",3.14
102927,822-36-6,822-36-6,[H]C1=NC(C([H])([H])[H])=C([H])N1[H],"1H-IMIDAZOLE, 4-METHYL-",4-Methylimidazole,4-methyl-1H-imidazole,7504,DTXSID9025617,Cc1c[nH]c[n]1,"InChI=1S/C4H6N2/c1-4-2-5-3-6-4/h2-3H,1H3,(H,5,6)",XLSZMDLNRCVEIJ-UHFFFAOYSA-N,?,,"HANSCH,C ET AL. (1995)",0.23
102929,822-86-6,822-86-6,[H]C1([H])C([H])([H])C([H])([H])C([H])(Cl)C([H])(Cl)C1([H])[H],"1,2-DICHLOROCYCLOHEXANE -TRANS","trans-1,2-Dichlorocyclohexane","(1R,2R)-1,2-dichlorocyclohexane",7506,DTXSID7022126,ClC1CCCCC1Cl,"InChI=1S/C6H10Cl2/c7-5-3-1-2-4-6(5)8/h5-6H,1-4H2",GZEZIBFVJYNETN-UHFFFAOYSA-N,?,,"HANSCH,C ET AL. (1995)",3.21
102930,823-09-6,823-09-6,[H]C1=NC(SC([H])([H])[H])=NC([H])=C1[H],"PYRIMIDINE, 2-(METHYLTHIO)-",,,7507,DTXSID80878784,CSc1[n]ccc[n]1,"InChI=1S/C5H6N2S/c1-8-5-6-3-2-4-7-5/h2-4H,1H3",FOEMIZSFFWGXHX-UHFFFAOYSA-N,?,,"YAMAGAMI,C ET AL. (1990)",1.01
102931,824-46-4,824-46-4,[H]OC1=C([H])C([H])=C(O[H])C(OC([H])([H])[H])=C1[H],"1,4-BENZENEDIOL, 2-METHOXY-",Methoxyhydroquinone,"2-methoxybenzene-1,4-diol",7508,DTXSID00231716,COc1cc(O)ccc1O,"InChI=1S/C7H8O3/c1-10-7-4-5(8)2-3-6(7)9/h2-4,8-9H,1H3",LAQYHRQFABOIFD-UHFFFAOYSA-N,?,,"HANSCH,C ET AL. (1995)",0.47