ChemID,source_casrn,CAS,SMILES,NAME,preferred_name,iupac,MPID,dsstox_substance_id,Canonical_QSARr,InChI_Code_QSARr,InChI Key_QSARr,Salt_Solvent,Salt_Solvent_ID,Kow Reference,LogP
100615,88-72-2,88-72-2,[H]C1=C([H])C([N+](=O)[O-])=C(C([H])([H])[H])C([H])=C1[H],2-NITROTOLUENE,2-Nitrotoluene,1-methyl-2-nitrobenzene,5264,DTXSID4025791,Cc1ccccc1[N+]([O-])=O,"InChI=1S/C7H7NO2/c1-6-4-2-3-5-7(6)8(9)10/h2-5H,1H3",PLAZTCDQAHEYBI-UHFFFAOYSA-N,?,,"HANSCH,C ET AL. (1995)",2.3
100616,88-73-3,88-73-3,[H]C1=C([H])C([H])=C([N+](=O)[O-])C(Cl)=C1[H],2-CHLORO-1-NITROBENZENE,1-Chloro-2-nitrobenzene,1-chloro-2-nitrobenzene,5265,DTXSID0020280,[O-][N+](=O)c1ccccc1Cl,InChI=1S/C6H4ClNO2/c7-5-3-1-2-4-6(5)8(9)10/h1-4H,BFCFYVKQTRLZHA-UHFFFAOYSA-N,?,,"HANSCH,C ET AL. (1995)",2.24
100618,88-75-5,88-75-5,[H]OC1=C([H])C([H])=C([H])C([H])=C1[N+](=O)[O-],2-NITROPHENOL,2-Nitrophenol,2-nitrophenol,5267,DTXSID1021790,[O-][N+](=O)c1ccccc1O,"InChI=1S/C6H5NO3/c8-6-4-2-1-3-5(6)7(9)10/h1-4,8H",IQUPABOKLQSFBK-UHFFFAOYSA-N,?,,"HANSCH,C ET AL. (1995)",1.79
100619,88-85-7,88-85-7,[H]OC1=C(C([H])(C([H])([H])[H])C([H])([H])C([H])([H])[H])C([H])=C([N+](=O)[O-])C([H])=C1[N+](=O)[O-],DINOSEB,Dinoseb,"2-(butan-2-yl)-4,6-dinitrophenol",5268,DTXSID3020207,CCC(C)c1cc(cc(c1O)[N+]([O-])=O)[N+]([O-])=O,"InChI=1S/C10H12N2O5/c1-3-6(2)8-4-7(11(14)15)5-9(10(8)13)12(16)17/h4-6,13H,3H2,1-2H3",OWZPCEFYPSAJFR-UHFFFAOYSA-N,?,,"HANSCH,C ET AL. (1995)",3.56
100620,88-89-1,88-89-1,[H]OC1=C([N+](=O)[O-])C([H])=C([N+](=O)[O-])C([H])=C1[N+](=O)[O-],"2,4,6-TRINITROPHENOL",Picric acid,"2,4,6-trinitrophenol",5269,DTXSID4025909,[O-][N+](=O)c1cc(c(O)c(c1)[N+]([O-])=O)[N+]([O-])=O,"InChI=1S/C6H3N3O7/c10-6-4(8(13)14)1-3(7(11)12)2-5(6)9(15)16/h1-2,10H",OXNIZHLAWKMVMX-UHFFFAOYSA-N,?,,SANGSTER (1994),1.44
100622,88-99-3,88-99-3,[H]OC(=O)C1=C(C(=O)O[H])C([H])=C([H])C([H])=C1[H],O-PHTHALIC ACID,Phthalic acid,"benzene-1,2-dicarboxylic acid",5271,DTXSID8021484,OC(=O)c1ccccc1C(O)=O,"InChI=1S/C8H6O4/c9-7(10)5-3-1-2-4-6(5)8(11)12/h1-4H,(H,9,10)(H,11,12)",XNGIFLGASWRNHJ-UHFFFAOYSA-N,?,,"HANSCH,C ET AL. (1995)",0.73
100623,89-24-7,41807-35-6,[H]C1=C([H])C([H])=C(C2([H])C(=O)N([H])C(=O)N2[H])C([H])=C1[H],"5-PHENYL-2,4-IMIDAZOLIDIONE",AC1LEIZX,C9H8N2O2,5272,DTXSID50353114,O=C1NC(c2ccccc2)C(=O)N1,"InChI=1S/C9H8N2O2/c12-8-7(10-9(13)11-8)6-4-2-1-3-5-6/h1-5,7H,(H2,10,11,12,13)",NXQJDVBMMRCKQG-UHFFFAOYSA-N,?,,"LIPINSKI,CA ET AL. (1991)",0.46
100624,89-52-1,89-52-1,[H]OC(=O)C1=C(N([H])C(=O)C([H])([H])[H])C([H])=C([H])C([H])=C1[H],N-ACETYL O-AMINOBENZOIC ACID,"Benzoic acid, 2-(acetylamino)-",2-Acetamidobenzoic acid,5273,DTXSID9058991,CC(=O)Nc1ccccc1C(O)=O,"InChI=1S/C9H9NO3/c1-6(11)10-8-5-3-2-4-7(8)9(12)13/h2-5H,1H3,(H,10,11)(H,12,13)",QSACCXVHEVWNMX-UHFFFAOYSA-N,?,,"HANSCH,C ET AL. (1995)",1.88
100626,89-56-5,89-56-5,[H]OC(=O)C1=C([H])C(C([H])([H])[H])=C([H])C([H])=C1O[H],5-METHYLSALICYLIC ACID,5-Methylsalicylic acid,2-Hydroxy-5-methylbenzoic acid,5275,DTXSID20237472,Cc1ccc(O)c(c1)C(O)=O,"InChI=1S/C8H8O3/c1-5-2-3-7(9)6(4-5)8(10)11/h2-4,9H,1H3,(H,10,11)",DLGBEGBHXSAQOC-UHFFFAOYSA-N,?,,"HANSCH,C ET AL. (1995)",2.78
100627,89-59-8,89-59-8,[H]C1=C(Cl)C([H])=C([N+](=O)[O-])C(C([H])([H])[H])=C1[H],"BENZENE, 4-CHLORO-1-METHYL-2-NITRO-","Benzene, 4-chloro-1-methyl-2-nitro-",4-chloro-1-methyl-2-nitrobenzene,5276,DTXSID4058994,Cc1ccc(Cl)cc1[N+]([O-])=O,"InChI=1S/C7H6ClNO2/c1-5-2-3-6(8)4-7(5)9(10)11/h2-4H,1H3",SQFLFRQWPBEDHM-UHFFFAOYSA-N,?,,"DENEER,JW ET AL. (1987)",3.05
100628,89-61-2,89-61-2,[H]C1=C([H])C(Cl)=C([N+](=O)[O-])C([H])=C1Cl,"2,5-DICHLORONITROBENZENE","1,4-Dichloro-2-nitrobenzene","1,4-dichloro-2-nitrobenzene",5277,DTXSID7052602,[O-][N+](=O)c1cc(Cl)ccc1Cl,InChI=1S/C6H3Cl2NO2/c7-4-1-2-5(8)6(3-4)9(10)11/h1-3H,RZKKOBGFCAHLCZ-UHFFFAOYSA-N,?,,"HANSCH,C ET AL. (1995)",3.09
100630,89-64-5,89-64-5,[H]OC1=C([H])C([H])=C(Cl)C([H])=C1[N+](=O)[O-],4-CHLORO-2-NITROPHENOL,4-Chloro-2-nitrophenol,4-CHLORO-2-NITROPHENOL,5279,DTXSID4058996,[O-][N+](=O)c1cc(Cl)ccc1O,"InChI=1S/C6H4ClNO3/c7-4-1-2-6(9)5(3-4)8(10)11/h1-3,9H",NWSIFTLPLKCTSX-UHFFFAOYSA-N,?,,"SCHWARZENBACH,RP ET AL. (1988)",2.46
100631,89-68-9,89-68-9,[H]OC1=C(C([H])(C([H])([H])[H])C([H])([H])[H])C([H])=C(Cl)C(C([H])([H])[H])=C1[H],CHLOROTHYMOL,6-Chlorothymol,4-chloro-5-methyl-2-(propan-2-yl)phenol,5280,DTXSID2041547,Cc1cc(O)c(cc1Cl)C(C)C,"InChI=1S/C10H13ClO/c1-6(2)8-5-9(11)7(3)4-10(8)12/h4-6,12H,1-3H3",KFZXVMNBUMVKLN-UHFFFAOYSA-N,?,,"HANSCH,C ET AL. (1995)",3.92
100632,89-69-0,89-69-0,[H]C1=C(Cl)C(Cl)=C([H])C([N+](=O)[O-])=C1Cl,"2,4,5-TRICHLORONITROBENZENE","2,4,5-Trichloronitrobenzene","1,2,4-trichloro-5-nitrobenzene",5281,DTXSID5026203,[O-][N+](=O)c1cc(Cl)c(Cl)cc1Cl,InChI=1S/C6H2Cl3NO2/c7-3-1-5(9)6(10(11)12)2-4(3)8/h1-2H,IBRBMZRLVYKVRF-UHFFFAOYSA-N,?,,"HANSCH,C ET AL. (1995)",3.48
100634,89-72-5,89-72-5,[H]OC1=C([H])C([H])=C([H])C([H])=C1C([H])(C([H])([H])[H])C([H])([H])C([H])([H])[H],O-SEC-BUTYLPHENOL,2-(Butan-2-yl)phenol,2-(butan-2-yl)phenol,5283,DTXSID2022331,CCC(C)c1ccccc1O,"InChI=1S/C10H14O/c1-3-8(2)9-6-4-5-7-10(9)11/h4-8,11H,3H2,1-2H3",NGFPWHGISWUQOI-UHFFFAOYSA-N,?,,"HANSCH,C ET AL. (1995)",3.27
100635,89-78-1|2216-51-5,1490-04-6|2216-51-5,[H]OC1([H])C([H])([H])C([H])(C([H])([H])[H])C([H])([H])C([H])([H])C1([H])C([H])(C([H])([H])[H])C([H])([H])[H],"MENTHOL, MENTHOL (L)",Menthol,5-methyl-2-(propan-2-yl)cyclohexanol,5284|8287,DTXSID8029650|DTXSID1022180,CC(C)C1CCC(C)CC1O,"InChI=1S/C10H20O/c1-7(2)9-5-4-8(3)6-10(9)11/h7-11H,4-6H2,1-3H3",NOOLISFMXDJSKH-UHFFFAOYSA-N,?,,"GRIFFIN,S ET AL. (1999)",3.4
100636,89-81-6,89-81-6,[H]C1=C(C([H])([H])[H])C([H])([H])C([H])([H])C([H])(C([H])(C([H])([H])[H])C([H])([H])[H])C1=O,Piperitone,Piperitone,6-isopropyl-3-methylcyclohex-2-en-1-one,5285,DTXSID7052604,CC1CCC(C(C)C)C(=O)C=1,"InChI=1S/C10H16O/c1-7(2)9-5-4-8(3)6-10(9)11/h6-7,9H,4-5H2,1-3H3",YSTPAHQEHQSRJD-UHFFFAOYSA-N,?,,"GRIFFIN,S ET AL. (1999)",2.85
100638,89-83-8,89-83-8,[H]OC1=C([H])C(C([H])([H])[H])=C([H])C([H])=C1C([H])(C([H])([H])[H])C([H])([H])[H],THYMOL,Thymol,5-methyl-2-(propan-2-yl)phenol,5287,DTXSID6034972,Cc1ccc(C(C)C)c(O)c1,"InChI=1S/C10H14O/c1-7(2)9-5-4-8(3)6-10(9)11/h4-7,11H,1-3H3",MGSRCZKZVOBKFT-UHFFFAOYSA-N,?,,"HANSCH,C ET AL. (1995)",3.3
100639,89-86-1,89-86-1,[H]OC(=O)C1=C(O[H])C([H])=C(O[H])C([H])=C1[H],"2,4-DIHYDROXYBENZOIC ACID","2,4-Dihydroxybenzoic acid","2,4-dihydroxybenzoic acid",5288,DTXSID0025074,Oc1cc(O)c(cc1)C(O)=O,"InChI=1S/C7H6O4/c8-4-1-2-5(7(10)11)6(9)3-4/h1-3,8-9H,(H,10,11)",UIAFKZKHHVMJGS-UHFFFAOYSA-N,?,,"HANSCH,C ET AL. (1995)",1.63
100640,89-98-5,89-98-5,[H]C(=O)C1=C([H])C([H])=C([H])C([H])=C1Cl,2-CHLOROBENZALDEHYDE,2-Chlorobenzaldehyde,2-chlorobenzaldehyde,5289,DTXSID5024764,O=Cc1ccccc1Cl,InChI=1S/C7H5ClO/c8-7-4-2-1-3-6(7)5-9/h1-5H,FPYUJUBAXZAQNL-UHFFFAOYSA-N,?,,"HANSCH,C ET AL. (1995)",2.33
100642,90-01-7,90-01-7,[H]OC1=C(C([H])([H])O[H])C([H])=C([H])C([H])=C1[H],O-HYDROXYBENZYL ALCOHOL,Salicyl alcohol,2-(hydroxymethyl)phenol,5291,DTXSID9045843,Oc1ccccc1CO,"InChI=1S/C7H8O2/c8-5-6-3-1-2-4-7(6)9/h1-4,8-9H,5H2",CQRYARSYNCAZFO-UHFFFAOYSA-N,?,,"HANSCH,C ET AL. (1995)",0.73
100643,90-02-8,90-02-8,[H]OC1=C(C([H])=O)C([H])=C([H])C([H])=C1[H],O-HYDROXYBENZALDEHYDE,Salicylaldehyde,2-hydroxybenzaldehyde,5292,DTXSID1021792,Oc1ccccc1C=O,"InChI=1S/C7H6O2/c8-5-6-3-1-2-4-7(6)9/h1-5,9H",SMQUZDBALVYZAC-UHFFFAOYSA-N,?,,"HANSCH,C ET AL. (1995)",1.81
100645,90-04-0,90-04-0,[H]C1=C([H])C([H])=C(N([H])[H])C(OC([H])([H])[H])=C1[H],2-METHOXYANILINE,2-Anisidine,2-methoxyaniline,5293,DTXSID5023877,COc1ccccc1N,"InChI=1S/C7H9NO/c1-9-7-5-3-2-4-6(7)8/h2-5H,8H2,1H3",VMPITZXILSNTON-UHFFFAOYSA-N,?,,"HANSCH,C ET AL. (1995)",1.18
100647,90-12-0,90-12-0,[H]C1=C([H])C([H])=C2C(=C1[H])C([H])=C([H])C([H])=C2C([H])([H])[H],1-METHYLNAPHTHALENE,1-Methylnaphthalene,1-methylnaphthalene,5295,DTXSID9020877,Cc1cccc2ccccc21,"InChI=1S/C11H10/c1-9-5-4-7-10-6-2-3-8-11(9)10/h2-8H,1H3",QPUYECUOLPXSFR-UHFFFAOYSA-N,?,,"HANSCH,C ET AL. (1995)",3.87
100648,90-13-1,90-13-1,[H]C1=C([H])C(Cl)=C2C([H])=C([H])C([H])=C([H])C2=C1[H],1-CHLORONAPHTHALENE,1-Chloronaphthalene,1-chloronaphthalene,5296,DTXSID2024791,Clc1cccc2ccccc21,InChI=1S/C10H7Cl/c11-10-7-3-5-8-4-1-2-6-9(8)10/h1-7H,JTPNRXUCIXHOKM-UHFFFAOYSA-N,?,,"LEI,YD ET AL. (2000)",4.0
100649,90-15-3,90-15-3,[H]OC1=C2C([H])=C([H])C([H])=C([H])C2=C([H])C([H])=C1[H],1-NAPHTHOL,1-Naphthol,naphthalen-1-ol,5297,DTXSID6021793,Oc1cccc2ccccc21,"InChI=1S/C10H8O/c11-10-7-3-5-8-4-1-2-6-9(8)10/h1-7,11H",KJCVRFUGPWSIIH-UHFFFAOYSA-N,?,,"HANSCH,C ET AL. (1995)",2.85
100651,90-30-2,90-30-2,[H]C1=C([H])C([H])=C(N([H])C2=C([H])C([H])=C([H])C3=C([H])C([H])=C([H])C([H])=C32)C([H])=C1[H],"1-NAPHTHALENAMINE, N-PHENYL-",N-Phenyl-1-naphthylamine,N-phenylnaphthalen-1-amine,5299,DTXSID2025892,c1cccc2c(cccc21)Nc1ccccc1,"InChI=1S/C16H13N/c1-2-9-14(10-3-1)17-16-12-6-8-13-7-4-5-11-15(13)16/h1-12,17H",XQVWYOYUZDUNRW-UHFFFAOYSA-N,?,,"HANSCH,C ET AL. (1995)",4.2
100652,90-33-5,90-33-5,[H]OC1=C([H])C([H])=C2C(=C1[H])OC(=O)C([H])=C2C([H])([H])[H],7-HYDROXY-4-METHYLCOUMARIN,4-Methylumbelliferone,7-hydroxy-4-methyl-2H-chromen-2-one,5300,DTXSID8025670,CC1=CC(=O)Oc2cc(O)ccc21,"InChI=1S/C10H8O3/c1-6-4-10(12)13-9-5-7(11)2-3-8(6)9/h2-5,11H,1H3",HSHNITRMYYLLCV-UHFFFAOYSA-N,?,,"HANSCH,C ET AL. (1995)",1.9
100653,90-41-5,90-41-5,[H]C1=C([H])C([H])=C(C2=C([H])C([H])=C([H])C([H])=C2N([H])[H])C([H])=C1[H],2-AMINOBIPHENYL,2-Biphenylamine,biphenyl-2-amine,5301,DTXSID3030189,Nc1ccccc1-c1ccccc1,"InChI=1S/C12H11N/c13-12-9-5-4-8-11(12)10-6-2-1-3-7-10/h1-9H,13H2",TWBPWBPGNQWFSJ-UHFFFAOYSA-N,?,,"HANSCH,C ET AL. (1995)",2.84
100655,90-44-8,90-44-8,[H]C1=C([H])C([H])=C2C(=C1[H])C(=O)C1=C([H])C([H])=C([H])C([H])=C1C2([H])[H],9(10H)-ANTHRACENONE,Anthrone,anthracen-9(10H)-one,5303,DTXSID1049431,O=C1c2ccccc2Cc2ccccc21,"InChI=1S/C14H10O/c15-14-12-7-3-1-5-10(12)9-11-6-2-4-8-13(11)14/h1-8H,9H2",RJGDLRCDCYRQOQ-UHFFFAOYSA-N,?,,"HANSCH,C ET AL. (1995)",3.66
100656,90-45-9,90-45-9,[H]C1=C([H])C([H])=C([H])C2=C(N([H])[H])C3=C([H])C([H])=C([H])C([H])=C3N=C12,9-AMINOACRIDINE,9-Aminoacridine,acridin-9-amine,5304,DTXSID2024456,Nc1c2ccccc2[n]c2ccccc21,"InChI=1S/C13H10N2/c14-13-9-5-1-3-7-11(9)15-12-8-4-2-6-10(12)13/h1-8H,(H2,14,15)",XJGFWWJLMVZSIG-UHFFFAOYSA-N,?,,"HANSCH,C ET AL. (1995)",2.74
100657,90-47-1,90-47-1,[H]C1=C([H])C([H])=C2C(=O)C3=C([H])C([H])=C([H])C([H])=C3OC2=C1[H],9H-XANTHEN-9-ONE,Xanthone,9H-xanthen-9-one,5305,DTXSID6021795,O=C1c2ccccc2Oc2ccccc21,InChI=1S/C13H8O2/c14-13-9-5-1-3-7-11(9)15-12-8-4-2-6-10(12)13/h1-8H,JNELGWHKGNBSMD-UHFFFAOYSA-N,?,,"HANSCH,C ET AL. (1995)",3.39
100660,90-94-8,90-94-8,[H]C1=C([H])C(N(C([H])([H])[H])C([H])([H])[H])=C([H])C([H])=C1C(=O)C1=C([H])C([H])=C(N(C([H])([H])[H])C([H])([H])[H])C([H])=C1[H],"4,4-BIS(DIMETHYLAMINO)BENZOPHENONE",Michler's ketone,bis[4-(dimethylamino)phenyl]methanone,5307,DTXSID2020894,CN(C)c1ccc(cc1)C(=O)c1ccc(cc1)N(C)C,"InChI=1S/C17H20N2O/c1-18(2)15-9-5-13(6-10-15)17(20)14-7-11-16(12-8-14)19(3)4/h5-12H,1-4H3",VVBLNCFGVYUYGU-UHFFFAOYSA-N,?,,"HANSCH,C ET AL. (1995)",3.87
100661,91-01-0,91-01-0,[H]OC([H])(C1=C([H])C([H])=C([H])C([H])=C1[H])C1=C([H])C([H])=C([H])C([H])=C1[H],BENZHYDROL,Diphenylmethanol,C13H12O,5308,DTXSID2059015,OC(c1ccccc1)c1ccccc1,"InChI=1S/C13H12O/c14-13(11-7-3-1-4-8-11)12-9-5-2-6-10-12/h1-10,13-14H",QILSFLSDHQAZET-UHFFFAOYSA-N,?,,"HANSCH,C ET AL. (1995)",2.67
100662,91-02-1,91-02-1,[H]C1=C([H])C([H])=C([H])C(C(=O)C2=C([H])C([H])=C([H])C([H])=C2[H])=N1,PHENYL-A-PYRIDYLKETONE,"Methanone, phenyl-2-pyridinyl-",phenyl-pyridin-2-ylmethanone,5309,DTXSID7059016,O=C(c1cccc[n]1)c1ccccc1,InChI=1S/C12H9NO/c14-12(10-6-2-1-3-7-10)11-8-4-5-9-13-11/h1-9H,GCSHUYKULREZSJ-UHFFFAOYSA-N,?,,"HANSCH,C ET AL. (1995)",1.88
100664,91-15-6,91-15-6,[H]C1=C([H])C(C#N)=C(C#N)C([H])=C1[H],"1,2-DICYANOBENZENE","1,2-Benzenedicarbonitrile","benzene-1,2-dicarbonitrile",5311,DTXSID8029604,N#Cc1ccccc1C#N,InChI=1S/C8H4N2/c9-5-7-3-1-2-4-8(7)6-10/h1-4H,XQZYPMVTSDWCCE-UHFFFAOYSA-N,?,,"NAKAGAWA,Y ET AL. (1992)",0.99
100665,91-16-7,91-16-7,[H]C1=C([H])C([H])=C(OC([H])([H])[H])C(OC([H])([H])[H])=C1[H],"1,2-DIMETHOXYBENZENE","1,2-Dimethoxybenzene","1,2-dimethoxybenzene",5312,DTXSID7047065,COc1ccccc1OC,"InChI=1S/C8H10O2/c1-9-7-5-3-4-6-8(7)10-2/h3-6H,1-2H3",ABDKAPXRBAPSQN-UHFFFAOYSA-N,?,,"HANSCH,C ET AL. (1995)",1.6
100666,91-18-9,91-18-9,[H]C1=NC2=C(N=C([H])C([H])=N2)C([H])=N1,PTERIDINE,Pteridine,Pteridine,5313,DTXSID60238347,c1[n]c[n]c2[n]cc[n]c21,InChI=1S/C6H4N4/c1-2-9-6-5(8-1)3-7-4-10-6/h1-4H,CPNGPNLZQNNVQM-UHFFFAOYSA-N,?,,"HANSCH,C ET AL. (1995)",-0.58
100668,91-20-3,91-20-3,[H]C1=C([H])C([H])=C2C([H])=C([H])C([H])=C([H])C2=C1[H],NAPHTHALENE,Naphthalene,naphthalene,5315,DTXSID8020913,c1cccc2ccccc21,InChI=1S/C10H8/c1-2-6-10-8-4-3-7-9(10)5-1/h1-8H,UFWIBTONFRDIAS-UHFFFAOYSA-N,?,,"HANSCH,C ET AL. (1995)",3.3
100669,91-22-5,91-22-5,[H]C1=C([H])C([H])=C2C(=N1)C([H])=C([H])C([H])=C2[H],QUINOLINE,Quinoline,C9H7N,5316,DTXSID1021798,c1cccc2[n]cccc21,InChI=1S/C9H7N/c1-2-6-9-8(4-1)5-3-7-10-9/h1-7H,SMWDFEZZVXVKRB-UHFFFAOYSA-N,?,,"HANSCH,C ET AL. (1995)",2.03
100670,91-23-6,91-23-6,[H]C1=C([H])C([H])=C([N+](=O)[O-])C(OC([H])([H])[H])=C1[H],2-NITROANISOLE,1-Methoxy-2-nitrobenzene,1-methoxy-2-nitrobenzene,5317,DTXSID3020962,COc1ccccc1[N+]([O-])=O,"InChI=1S/C7H7NO3/c1-11-7-5-3-2-4-6(7)8(9)10/h2-5H,1H3",CFBYEGUGFPZCNF-UHFFFAOYSA-N,?,,"HANSCH,C ET AL. (1995)",1.73
100672,91-40-7,91-40-7,[H]OC(=O)C1=C([H])C([H])=C([H])C([H])=C1N([H])C1=C([H])C([H])=C([H])C([H])=C1[H],N-PHENYL O-AMINOBENZOIC ACID,Phenylanthranilic acid,2-(Phenylamino)benzoic acid,5319,DTXSID6059025,OC(=O)c1ccccc1Nc1ccccc1,"InChI=1S/C13H11NO2/c15-13(16)11-8-4-5-9-12(11)14-10-6-2-1-3-7-10/h1-9,14H,(H,15,16)",ZWJINEZUASEZBH-UHFFFAOYSA-N,?,,"HANSCH,C ET AL. (1995)",4.36
100673,91-46-3,91-46-3,[H]C1=C(OC([H])([H])C([H])([H])N(C([H])([H])[H])C([H])([H])[H])C(C([H])(C([H])([H])[H])C([H])([H])[H])=C([H])C([H])=C1C([H])([H])[H],"ETHANAMINE, N,N-DIMETHYL-2-[5-METHYL-2-(1-METHYL",Tastromine,"N,N-dimethyl-2-(5-methyl-2-propan-2-ylphenoxy)ethanamine",5320,DTXSID70238353,Cc1ccc(C(C)C)c(c1)OCCN(C)C,"InChI=1S/C14H23NO/c1-11(2)13-7-6-12(3)10-14(13)16-9-8-15(4)5/h6-7,10-11H,8-9H2,1-5H3",MZPZTGNMUWMDBQ-UHFFFAOYSA-N,?,,"DALLET,P ET AL. (1985)",3.79
100674,91-55-4,91-55-4,[H]C1=C([H])C([H])=C2C(=C1[H])C(C([H])([H])[H])=C(C([H])([H])[H])N2[H],"1H-INDOLE, 2,3-DIMETHYL-","1H-Indole, 2,3-dimethyl-","2,3-Dimethyl-1H-indole",5321,DTXSID6059027,Cc1c2ccccc2[nH]c1C,"InChI=1S/C10H11N/c1-7-8(2)11-10-6-4-3-5-9(7)10/h3-6,11H,1-2H3",PYFVEIDRTLBMHG-UHFFFAOYSA-N,?,,SANGSTER (1993),3.05
100676,91-57-6,91-57-6,[H]C1=C([H])C2=C([H])C([H])=C(C([H])([H])[H])C([H])=C2C([H])=C1[H],2-METHYLNAPHTHALENE,2-Methylnaphthalene,2-methylnaphthalene,5323,DTXSID4020878,Cc1cc2ccccc2cc1,"InChI=1S/C11H10/c1-9-6-7-10-4-2-3-5-11(10)8-9/h2-8H,1H3",QIMMUPPBPVKWKM-UHFFFAOYSA-N,?,,"HANSCH,C ET AL. (1995)",3.86
100677,91-58-7,91-58-7,[H]C1=C([H])C([H])=C2C([H])=C(Cl)C([H])=C([H])C2=C1[H],2-CHLORONAPHTHALENE,2-Chloronaphthalene,2-chloronaphthalene,5324,DTXSID8023971,Clc1cc2ccccc2cc1,InChI=1S/C10H7Cl/c11-10-6-5-8-3-1-2-4-9(8)7-10/h1-7H,CGYGETOMCSJHJU-UHFFFAOYSA-N,?,,"LEI,YD ET AL. (2000)",3.9
100678,91-59-8,91-59-8,[H]C1=C([H])C([H])=C2C([H])=C(N([H])[H])C([H])=C([H])C2=C1[H],2-NAPHTHYLAMINE,2-Naphthylamine,naphthalen-2-amine,5325,DTXSID2020921,Nc1cc2ccccc2cc1,"InChI=1S/C10H9N/c11-10-6-5-8-3-1-2-4-9(8)7-10/h1-7H,11H2",JBIJLHTVPXGSAM-UHFFFAOYSA-N,?,,"HANSCH,C ET AL. (1995)",2.28
100680,91-63-4,91-63-4,[H]C1=C([H])C2=C([H])C([H])=C([H])C([H])=C2N=C1C([H])([H])[H],2-METHYLQUINOLINE,Quinaldine,2-methylquinoline,5327,DTXSID3040271,Cc1ccc2ccccc2[n]1,"InChI=1S/C10H9N/c1-8-6-7-9-4-2-3-5-10(9)11-8/h2-7H,1H3",SMUQFGGVLNAIOZ-UHFFFAOYSA-N,?,,"HANSCH,C ET AL. (1995)",2.59
100681,91-64-5,91-64-5,[H]C1=C([H])C2=C([H])C([H])=C([H])C([H])=C2OC1=O,COUMARIN,Coumarin,2H-chromen-2-one,5328,DTXSID7020348,O=C1C=Cc2ccccc2O1,InChI=1S/C9H6O2/c10-9-6-5-7-3-1-2-4-8(7)11-9/h1-6H,ZYGHJZDHTFUPRJ-UHFFFAOYSA-N,?,,"HANSCH,C ET AL. (1995)",1.39
100682,91-66-7,91-66-7,[H]C1=C([H])C([H])=C(N(C([H])([H])C([H])([H])[H])C([H])([H])C([H])([H])[H])C([H])=C1[H],"N,N-DIETHYLANILINE","N,N-Diethylaniline","N,N-diethylaniline",5329,DTXSID8021800,CCN(CC)c1ccccc1,"InChI=1S/C10H15N/c1-3-11(4-2)10-8-6-5-7-9-10/h5-9H,3-4H2,1-2H3",GGSUCNLOZRCGPQ-UHFFFAOYSA-N,?,,"HANSCH,C ET AL. (1995)",3.31
100684,91-80-5,91-80-5,[H]C1=C([H])C([H])=C([H])C(N(C([H])([H])C2=C([H])C([H])=C([H])S2)C([H])([H])C([H])([H])N(C([H])([H])[H])C([H])([H])[H])=N1,METHAPYRILENE,Methapyrilene,"N,N-dimethyl-N'-(pyridin-2-yl)-N'-(thiophen-2-ylmethyl)ethane-1,2-diamine",5331,DTXSID2023278,CN(C)CCN(Cc1ccc[s]1)c1cccc[n]1,"InChI=1S/C14H19N3S/c1-16(2)9-10-17(12-13-6-5-11-18-13)14-7-3-4-8-15-14/h3-8,11H,9-10,12H2,1-2H3",HNJJXZKZRAWDPF-UHFFFAOYSA-N,?,,SANGSTER (1994),2.87
100685,91-84-9,91-84-9,[H]C1=NC(N(C([H])([H])C2=C([H])C([H])=C(OC([H])([H])[H])C([H])=C2[H])C([H])([H])C([H])([H])N(C([H])([H])[H])C([H])([H])[H])=C([H])C([H])=C1[H],PYRILAMINE,Pyrilamine,"N-(4-methoxybenzyl)-N',N'-dimethyl-N-(pyridin-2-yl)ethane-1,2-diamine",5332,DTXSID9023542,CN(C)CCN(Cc1ccc(cc1)OC)c1cccc[n]1,"InChI=1S/C17H23N3O/c1-19(2)12-13-20(17-6-4-5-11-18-17)14-15-7-9-16(21-3)10-8-15/h4-11H,12-14H2,1-3H3",YECBIJXISLIIDS-UHFFFAOYSA-N,?,,"HANSCH,C ET AL. (1995)",3.27
100686,91-94-1,91-94-1,[H]C1=C(Cl)C(N([H])[H])=C([H])C([H])=C1C1=C([H])C([H])=C(N([H])[H])C(Cl)=C1[H],"3,3'-DICHLOROBENZIDINE","3,3'-Dichlorobenzidine","3,3'-dichlorobiphenyl-4,4'-diamine",5333,DTXSID6020432,Nc1ccc(cc1Cl)-c1cc(Cl)c(N)cc1,"InChI=1S/C12H10Cl2N2/c13-9-5-7(1-3-11(9)15)8-2-4-12(16)10(14)6-8/h1-6H,15-16H2",HUWXDEQWWKGHRV-UHFFFAOYSA-N,?,,"HANSCH,C ET AL. (1995)",3.51
100688,92-13-7,92-13-7,[H]C1=NC([H])=C(C([H])([H])C2([H])C([H])([H])OC(=O)C2([H])C([H])([H])C([H])([H])[H])N1C([H])([H])[H],PILOCARPOL,Pilocarpine,"(3S,4R)-3-ethyl-4-[(1-methyl-1H-imidazol-5-yl)methyl]dihydrofuran-2(3H)-one",5335,DTXSID1021162,CCC1C(COC1=O)Cc1c[n]c[n]1C,"InChI=1S/C11H16N2O2/c1-3-10-8(6-15-11(10)14)4-9-5-12-7-13(9)2/h5,7-8,10H,3-4,6H2,1-2H3",QCHFTSOMWOSFHM-UHFFFAOYSA-N,?,,SANGSTER (1993),0.12
100689,92-24-0,92-24-0,[H]C1=C([H])C2=C([H])C3=C([H])C4=C(C([H])=C([H])C([H])=C4[H])C([H])=C3C([H])=C2C([H])=C1[H],TETRACENE,Naphthacene,TETRACENE,5336,DTXSID4059045,c1c2cc3ccccc3cc2cc2ccccc21,InChI=1S/C18H12/c1-2-6-14-10-18-12-16-8-4-3-7-15(16)11-17(18)9-13(14)5-1/h1-12H,IFLREYGFSNHWGE-UHFFFAOYSA-N,?,,SANGSTER (1993),5.76
100690,92-43-3,92-43-3,[H]C1=C([H])C([H])=C(N2N([H])C(=O)C([H])([H])C2([H])[H])C([H])=C1[H],1-PHENYL-3-PYRAZOLIDINONE,"3-Pyrazolidinone,1-phenyl-",1-phenylpyrazolidin-3-one,5337,DTXSID1049433,O=C1CCN(N1)c1ccccc1,"InChI=1S/C9H10N2O/c12-9-6-7-11(10-9)8-4-2-1-3-5-8/h1-5H,6-7H2,(H,10,12)",CMCWWLVWPDLCRM-UHFFFAOYSA-N,?,,"HANSCH,C ET AL. (1995)",0.89
100692,92-50-2,92-50-2,[H]OC([H])([H])C([H])([H])N(C1=C([H])C([H])=C([H])C([H])=C1[H])C([H])([H])C([H])([H])[H],"ETHANOL, 2-(ETHYLPHENYLAMINO)-","Ethanol, 2-(ethylphenylamino)-",2-(ethyl-phenylamino)ethanol,5339,DTXSID3059056,CCN(CCO)c1ccccc1,"InChI=1S/C10H15NO/c1-2-11(8-9-12)10-6-4-3-5-7-10/h3-7,12H,2,8-9H2,1H3",HYVGFUIWHXLVNV-UHFFFAOYSA-N,?,,"HANSCH,C ET AL. (1995)",2.1
100693,92-52-4,92-52-4,[H]C1=C([H])C([H])=C(C2=C([H])C([H])=C([H])C([H])=C2[H])C([H])=C1[H],BIPHENYL,Biphenyl,biphenyl,5340,DTXSID4020161,c1ccccc1-c1ccccc1,InChI=1S/C12H10/c1-3-7-11(8-4-1)12-9-5-2-6-10-12/h1-10H,ZUOUZKKEUPVFJK-UHFFFAOYSA-N,?,,"HANSCH,C ET AL. (1995)",4.01
100694,92-53-5,92-53-5,[H]C1=C([H])C([H])=C(N2C([H])([H])C([H])([H])OC([H])([H])C2([H])[H])C([H])=C1[H],N-PHENYLMORPHOLINE,"Morpholine, 4-phenyl-",4-Phenylmorpholine,5341,DTXSID8059057,C1CN(CCO1)c1ccccc1,"InChI=1S/C10H13NO/c1-2-4-10(5-3-1)11-6-8-12-9-7-11/h1-5H,6-9H2",FHQRDEDZJIFJAL-UHFFFAOYSA-N,?,,"HANSCH,C ET AL. (1995)",1.36
100696,92-55-7,92-55-7,[H]C1=C([N+](=O)[O-])OC(C([H])(OC(=O)C([H])([H])[H])OC(=O)C([H])([H])[H])=C1[H],2-NO2-5-DI-(ACETOXYMETHYL)FURANE,5-Nitro-2-furanmethanediol diacetate,(5-nitrofuran-2-yl)methanediyl diacetate,5343,DTXSID5020946,CC(=O)OC(OC(C)=O)c1ccc(o1)[N+]([O-])=O,"InChI=1S/C9H9NO7/c1-5(11)15-9(16-6(2)12)7-3-4-8(17-7)10(13)14/h3-4,9H,1-2H3",HSXKWKJCZNRMJO-UHFFFAOYSA-N,?,,"HANSCH,C ET AL. (1995)",1.06