ChemID,source_casrn,CAS,SMILES,NAME,preferred_name,iupac,MPID,dsstox_substance_id,Canonical_QSARr,InChI_Code_QSARr,InChI Key_QSARr,Salt_Solvent,Salt_Solvent_ID,Kow Reference,LogP
102333,581-42-0,581-42-0,[H]C1=C([H])C(C([H])([H])[H])=C([H])C2=C([H])C([H])=C(C([H])([H])[H])C([H])=C12,"2,6-DIMETHYLNAPHTHALENE","2,6-Dimethylnaphthalene","2,6-dimethylnaphthalene",6929,DTXSID0029187,Cc1cc2ccc(C)cc2cc1,"InChI=1S/C12H12/c1-9-3-5-12-8-10(2)4-6-11(12)7-9/h3-8H,1-2H3",YGYNBBAUIYTWBF-UHFFFAOYSA-N,?,,"HANSCH,C ET AL. (1995)",4.31
102335,581-47-5,581-47-5,[H]C1=NC(C2=C([H])C([H])=NC([H])=C2[H])=C([H])C([H])=C1[H],(4-PYRIDYL)-2-PYRIDINE,"2,4'-Dipyridyl",2-pyridin-4-ylpyridine,6931,DTXSID40206822,c1c[n]ccc1-c1cccc[n]1,InChI=1S/C10H8N2/c1-2-6-12-10(3-1)9-4-7-11-8-5-9/h1-8H,RMHQDKYZXJVCME-UHFFFAOYSA-N,?,,"HANSCH,C ET AL. (1995)",1.58
102336,581-50-0,581-50-0,[H]C1=NC(C2=C([H])N=C([H])C([H])=C2[H])=C([H])C([H])=C1[H],"2,3'-BIPYRIDINE","2,3'-Bipyridine",2-pyridin-3-ylpyridine,6932,DTXSID00206823,c1[n]cccc1-c1cccc[n]1,InChI=1S/C10H8N2/c1-2-7-12-10(5-1)9-4-3-6-11-8-9/h1-8H,VEKIYFGCEAJDDT-UHFFFAOYSA-N,?,,"HANSCH,C ET AL. (1995)",1.46
102337,581-55-5,581-55-5,[H]C1=C([H])C([H])=C(C([H])(OC(=O)C([H])([H])[H])OC(=O)C([H])([H])[H])C([H])=C1[H],BENZAL DIACETATE,Benzylidene diacetate,(acetyloxy-phenylmethyl) acetate,6933,DTXSID60206824,CC(=O)OC(OC(C)=O)c1ccccc1,"InChI=1S/C11H12O4/c1-8(12)14-11(15-9(2)13)10-6-4-3-5-7-10/h3-7,11H,1-2H3",XRYSDRCNTMEYFH-UHFFFAOYSA-N,?,,"HANSCH,C ET AL. (1995)",1.62
102339,581-96-4,581-96-4,[H]OC(=O)C([H])([H])C1=C([H])C([H])=C2C([H])=C([H])C([H])=C([H])C2=C1[H],2-NAPHTHALENEACETIC ACID,2-Naphthylacetic acid,2-naphthalen-2-ylacetic acid,6935,DTXSID20206825,OC(=O)Cc1cc2ccccc2cc1,"InChI=1S/C12H10O2/c13-12(14)8-9-5-6-10-3-1-2-4-11(10)7-9/h1-7H,8H2,(H,13,14)",VIBOGIYPPWLDTI-UHFFFAOYSA-N,?,,"HANSCH,C ET AL. (1995)",2.81
102340,582-60-5,NOCAS_870631,[H]C1=NC2=C([H])C(C([H])([H])[H])=C(C([H])([H])[H])C([H])=C2N1[H],"5,6-DIMETHYLBENZIMIDAZOLE",,,6936,DTXSID70870631,Cc1cc2[n]c[nH]c2cc1C,"InChI=1S/C9H10N2/c1-6-3-8-9(4-7(6)2)11-5-10-8/h3-5H,1-2H3,(H,10,11)",LJUQGASMPRMWIW-UHFFFAOYSA-N,?,,"HANSCH,C ET AL. (1995)",2.35
102341,583-39-1,583-39-1,[H]C1=C([H])C([H])=C2C(=C1[H])N([H])C(=S)N2[H],O-PHENYLENETHIOUREA,2-Mercaptobenzimidazole,"1,3-dihydro-2H-benzimidazole-2-thione",6937,DTXSID9025536,S=C1Nc2ccccc2N1,"InChI=1S/C7H6N2S/c10-7-8-5-3-1-2-4-6(5)9-7/h1-4H,(H2,8,9,10)",YHMYGUUIMTVXNW-UHFFFAOYSA-N,?,,"HANSCH,C ET AL. (1995)",1.66
102343,583-78-8,583-78-8,[H]OC1=C(Cl)C([H])=C([H])C(Cl)=C1[H],"2,5-DICHLOROPHENOL","2,5-Dichlorophenol","2,5-dichlorophenol",6939,DTXSID7025003,Oc1cc(Cl)ccc1Cl,"InChI=1S/C6H4Cl2O/c7-4-1-2-5(8)6(9)3-4/h1-3,9H",RANCECPPZPIPNO-UHFFFAOYSA-N,?,,"HANSCH,C ET AL. (1995)",3.06
102344,584-02-1,584-02-1,[H]OC([H])(C([H])([H])C([H])([H])[H])C([H])([H])C([H])([H])[H],3-PENTANOL,3-Pentanol,Pentan-3-ol,6940,DTXSID8060400,CCC(O)CC,"InChI=1S/C5H12O/c1-3-5(6)4-2/h5-6H,3-4H2,1-2H3",AQIXEPGDORPWBJ-UHFFFAOYSA-N,?,,"HANSCH,C ET AL. (1995)",1.21
102345,584-79-2,584-79-2,[H]C([H])=C([H])C([H])([H])C1=C(C([H])([H])[H])C([H])(OC(=O)C2([H])C([H])(C([H])=C(C([H])([H])[H])C([H])([H])[H])C2(C([H])([H])[H])C([H])([H])[H])C([H])([H])C1=O,ALLETHRIN,Allethrin,"2-methyl-4-oxo-3-(prop-2-en-1-yl)cyclopent-2-en-1-yl 2,2-dimethyl-3-(2-methylprop-1-en-1-yl)cyclopropanecarboxylate",6941,DTXSID8035180,CC(C)=CC1C(C(=O)OC2CC(=O)C(CC=C)=C2C)C1(C)C,"InChI=1S/C19H26O3/c1-7-8-13-12(4)16(10-15(13)20)22-18(21)17-14(9-11(2)3)19(17,5)6/h7,9,14,16-17H,1,8,10H2,2-6H3",ZCVAOQKBXKSDMS-UHFFFAOYSA-N,?,,"HANSCH,C ET AL. (1995)",4.78
102347,585-34-2,585-34-2,[H]OC1=C([H])C([H])=C([H])C(C(C([H])([H])[H])(C([H])([H])[H])C([H])([H])[H])=C1[H],"PHENOL, 3-(1,1-DIMETHYLETHYL)-",3-tert-Butylphenol,3-tert-butylphenol,6943,DTXSID9044825,CC(C)(C)c1cccc(O)c1,"InChI=1S/C10H14O/c1-10(2,3)8-5-4-6-9(11)7-8/h4-7,11H,1-3H3",CYEKUDPFXBLGHH-UHFFFAOYSA-N,?,,SANGSTER (1993),3.3
102348,585-48-8,585-48-8,[H]C1=C([H])C([H])=C(C(C([H])([H])[H])(C([H])([H])[H])C([H])([H])[H])N=C1C(C([H])([H])[H])(C([H])([H])[H])C([H])([H])[H],"2,6-DI-T-BUTYLPYRIDINE","2,6-Di-tert-butylpyridine","2,6-ditert-butylpyridine",6944,DTXSID80207217,CC(C)(C)c1cccc([n]1)C(C)(C)C,"InChI=1S/C13H21N/c1-12(2,3)10-8-7-9-11(14-10)13(4,5)6/h7-9H,1-6H3",UWKQJZCTQGMHKD-UHFFFAOYSA-N,?,,"HANSCH,C ET AL. (1995)",4.14
102349,585-74-0,585-74-0,[H]C1=C([H])C(C([H])([H])[H])=C([H])C(C(=O)C([H])([H])[H])=C1[H],M-METHYLACETOPHENONE,"Ethanone, 1-(3-methylphenyl)-",1-(3-methylphenyl)ethanone,6945,DTXSID5074717,Cc1cccc(c1)C(C)=O,"InChI=1S/C9H10O/c1-7-4-3-5-9(6-7)8(2)10/h3-6H,1-2H3",FSPSELPMWGWDRY-UHFFFAOYSA-N,?,,"DUNN,WJ ET AL. (1983)",2.15
102351,585-79-5,585-79-5,[H]C1=C([H])C(Br)=C([H])C([N+](=O)[O-])=C1[H],3-BROMO-1-NITROBENZENE,"Benzene, 1-bromo-3-nitro-",1-Bromo-3-nitrobenzene,6947,DTXSID3060409,[O-][N+](=O)c1cccc(Br)c1,InChI=1S/C6H4BrNO2/c7-5-2-1-3-6(4-5)8(9)10/h1-4H,FWIROFMBWVMWLB-UHFFFAOYSA-N,?,,"HANSCH,C ET AL. (1995)",2.64
102352,586-11-8,586-11-8,[H]OC1=C([H])C([N+](=O)[O-])=C([H])C([N+](=O)[O-])=C1[H],"3,5-DINITROPHENOL","Phenol, 3,5-dinitro-","3,5-DINITROPHENOL",6948,DTXSID80207318,[O-][N+](=O)c1cc(O)cc(c1)[N+]([O-])=O,"InChI=1S/C6H4N2O5/c9-6-2-4(7(10)11)1-5(3-6)8(12)13/h1-3,9H",UEMBNLWZFIWQFL-UHFFFAOYSA-N,?,,"HANSCH,C ET AL. (1995)",2.36
102353,586-37-8,586-37-8,[H]C1=C([H])C(C(=O)C([H])([H])[H])=C([H])C(OC([H])([H])[H])=C1[H],M-METHOXYACETOPHENONE,3-Methoxyacetophenone,1-(3-METHOXYPHENYL)ETHANONE,6949,DTXSID10207321,CC(=O)c1cc(ccc1)OC,"InChI=1S/C9H10O2/c1-7(10)8-4-3-5-9(6-8)11-2/h3-6H,1-2H3",BAYUSCHCCGXLAY-UHFFFAOYSA-N,?,,"HANSCH,C ET AL. (1995)",1.84
102355,586-62-9,586-62-9,[H]C1=C(C([H])([H])[H])C([H])([H])C([H])([H])C(=C(C([H])([H])[H])C([H])([H])[H])C1([H])[H],TERPINOLENE,Terpinolene,1-methyl-4-(propan-2-ylidene)cyclohexene,6951,DTXSID0027222,CC(C)=C1CC=C(C)CC1,"InChI=1S/C10H16/c1-8(2)10-6-4-9(3)5-7-10/h4H,5-7H2,1-3H3",MOYAFQVGZZPNRA-UHFFFAOYSA-N,?,,"LI,J ET AL (1998)",4.47
102356,586-76-5,586-76-5,[H]OC(=O)C1=C([H])C([H])=C(Br)C([H])=C1[H],P-BROMOBENZOIC ACID,4-Bromobenzoic acid,4-Bromobenzoic acid,6952,DTXSID7060413,OC(=O)c1ccc(Br)cc1,"InChI=1S/C7H5BrO2/c8-6-3-1-5(2-4-6)7(9)10/h1-4H,(H,9,10)",TUXYZHVUPGXXQG-UHFFFAOYSA-N,?,,"HANSCH,C ET AL. (1995)",2.86
102357,586-78-7,586-78-7,[H]C1=C([H])C([N+](=O)[O-])=C([H])C([H])=C1Br,4-BROMO-1-NITROBENZENE,"Benzene, 1-bromo-4-nitro-",1-Bromo-4-nitrobenzene,6953,DTXSID7060415,[O-][N+](=O)c1ccc(Br)cc1,InChI=1S/C6H4BrNO2/c7-5-1-3-6(4-2-5)8(9)10/h1-4H,ZDFBKZUDCQQKAC-UHFFFAOYSA-N,?,,"HANSCH,C ET AL. (1995)",2.55
102359,586-89-0,586-89-0,[H]OC(=O)C1=C([H])C([H])=C(C(=O)C([H])([H])[H])C([H])=C1[H],P-ACETYLBENZOIC ACID,4-Acetylbenzoic acid,4-ACETYLBENZOIC ACID,6955,DTXSID30207323,CC(=O)c1ccc(cc1)C(O)=O,"InChI=1S/C9H8O3/c1-6(10)7-2-4-8(5-3-7)9(11)12/h2-5H,1H3,(H,11,12)",QBHDSQZASIBAAI-UHFFFAOYSA-N,?,,"HANSCH,C ET AL. (1995)",1.61
102360,586-95-8,NOCAS_870638,[H]OC([H])([H])C1=C([H])C([H])=NC([H])=C1[H],4-PYRIDINEMETHANOL,,,6956,DTXSID90870638,OCc1cc[n]cc1,"InChI=1S/C6H7NO/c8-5-6-1-3-7-4-2-6/h1-4,8H,5H2",PTMBWNZJOQBTBK-UHFFFAOYSA-N,?,,"HANSCH,C ET AL. (1995)",0.06
102361,586-96-9,586-96-9,[H]C1=C([H])C([H])=C(N=O)C([H])=C1[H],NITROSOBENZENE,Nitrosobenzene,Nitrosobenzene,6957,DTXSID7060417,O=Nc1ccccc1,InChI=1S/C6H5NO/c8-7-6-4-2-1-3-5-6/h1-5H,NLRKCXQQSUWLCH-UHFFFAOYSA-N,?,,"HANSCH,C ET AL. (1995)",2.01
102363,587-03-1,587-03-1,[H]OC([H])([H])C1=C([H])C([H])=C([H])C(C([H])([H])[H])=C1[H],M-METHYLBENZYL ALCOHOL,3-Methylbenzyl alcohol,(3-methylphenyl)methanol,6959,DTXSID4039497,Cc1cc(CO)ccc1,"InChI=1S/C8H10O/c1-7-3-2-4-8(5-7)6-9/h2-5,9H,6H2,1H3",JJCKHVUTVOPLBV-UHFFFAOYSA-N,?,,"HANSCH,C ET AL. (1995)",1.6
102364,587-04-2,587-04-2,[H]C(=O)C1=C([H])C([H])=C([H])C(Cl)=C1[H],M-CHLOROBENZALDEHYDE,"Benzaldehyde, 3-chloro-",3-Chlorobenzaldehyde,6960,DTXSID1074591,O=Cc1cccc(Cl)c1,InChI=1S/C7H5ClO/c8-7-3-1-2-6(4-7)5-9/h1-5H,SRWILAKSARHZPR-UHFFFAOYSA-N,?,,SANGSTER (1993),2.26
102365,587-34-8,587-34-8,[H]C1=C([H])C(Cl)=C([H])C(N([H])C(=O)N(C([H])([H])[H])C([H])([H])[H])=C1[H],"1,1-DIMETHYL-3(M-CHLOROPHENYL)","Urea, N'-(3-chlorophenyl)-N,N-dimethyl-","3-(3-chlorophenyl)-1,1-dimethylurea",6961,DTXSID2074667,CN(C)C(=O)Nc1cccc(Cl)c1,"InChI=1S/C9H11ClN2O/c1-12(2)9(13)11-8-5-3-4-7(10)6-8/h3-6H,1-2H3,(H,11,13)",QLQDWOFJALEHSP-UHFFFAOYSA-N,?,,"HANSCH,C ET AL. (1995)",2.0
102367,587-64-4,587-64-4,[H]OC(=O)C([H])([H])OC1=C([H])C(Cl)=C([H])C(Cl)=C1[H],"3,5-DICHLOROPHENOXYACETIC ACID","Acetic acid, (3,5-dichlorophenoxy)-","2-(3,5-dichlorophenoxy)acetic acid",6963,DTXSID40207399,OC(=O)COc1cc(Cl)cc(Cl)c1,"InChI=1S/C8H6Cl2O3/c9-5-1-6(10)3-7(2-5)13-4-8(11)12/h1-3H,4H2,(H,11,12)",LXWGIMHMQOCPCR-UHFFFAOYSA-N,?,,SANGSTER (1994),2.84
102368,587-65-5,587-65-5,[H]C1=C([H])C([H])=C(N([H])C(=O)C([H])([H])Cl)C([H])=C1[H],A-CHLOROACETANILIDE,2-Chloro-N-phenylacetamide,2-chloro-N-phenylacetamide,6964,DTXSID3041409,O=C(CCl)Nc1ccccc1,"InChI=1S/C8H8ClNO/c9-6-8(11)10-7-4-2-1-3-5-7/h1-5H,6H2,(H,10,11)",VONWPEXRCLHKRJ-UHFFFAOYSA-N,?,,"HANSCH,C ET AL. (1995)",1.63
102369,588-07-8,588-07-8,[H]C1=C([H])C(Cl)=C([H])C(N([H])C(=O)C([H])([H])[H])=C1[H],3-CHLOROACETANILIDE,"Acetamide, N-(3-chlorophenyl)-",N-(3-Chlorophenyl)acetamide,6965,DTXSID6060420,CC(=O)Nc1cccc(Cl)c1,"InChI=1S/C8H8ClNO/c1-6(11)10-8-4-2-3-7(9)5-8/h2-5H,1H3,(H,10,11)",MUUQHCOAOLLHIL-UHFFFAOYSA-N,?,,"NAKAGAWA,Y ET AL. (1992)",2.15
102371,588-22-7,588-22-7,[H]OC(=O)C([H])([H])OC1=C([H])C(Cl)=C(Cl)C([H])=C1[H],"3,4-DICHLOROPHENOXYACETIC ACID","3,4-DA","2-(3,4-dichlorophenoxy)acetic acid",6967,DTXSID70207524,OC(=O)COc1cc(Cl)c(Cl)cc1,"InChI=1S/C8H6Cl2O3/c9-6-2-1-5(3-7(6)10)13-4-8(11)12/h1-3H,4H2,(H,11,12)",SNYRXHULAWEECU-UHFFFAOYSA-N,?,,"HANSCH,C ET AL. (1995)",2.81
102372,588-32-9,588-32-9,[H]OC(=O)C([H])([H])OC1=C([H])C(Cl)=C([H])C([H])=C1[H],M-CHLOROPHENOXYACETIC ACID,3-Chlorophenoxyacetic acid,2-(3-chlorophenoxy)acetic acid,6968,DTXSID90207526,OC(=O)COc1cccc(Cl)c1,"InChI=1S/C8H7ClO3/c9-6-2-1-3-7(4-6)12-5-8(10)11/h1-4H,5H2,(H,10,11)",XSBUXVWJQVTYLC-UHFFFAOYSA-N,?,,"HANSCH,C ET AL. (1995)",2.03
102373,588-46-5,588-46-5,[H]C1=C([H])C([H])=C(C([H])([H])N([H])C(=O)C([H])([H])[H])C([H])=C1[H],N-BENZYLACETAMIDE,N-Benzylacetamide,N-benzylacetamide,6969,DTXSID6052249,CC(=O)NCc1ccccc1,"InChI=1S/C9H11NO/c1-8(11)10-7-9-5-3-2-4-6-9/h2-6H,7H2,1H3,(H,10,11)",UZJLYRRDVFWSGA-UHFFFAOYSA-N,?,,"HANSCH,C ET AL. (1995)",0.95
102376,589-16-2,589-16-2,[H]C1=C([H])C(C([H])([H])C([H])([H])[H])=C([H])C([H])=C1N([H])[H],P-ETHYLANILINE,4-Ethylaniline,4-ethylaniline,6972,DTXSID0022066,CCc1ccc(N)cc1,"InChI=1S/C8H11N/c1-2-7-3-5-8(9)6-4-7/h3-6H,2,9H2,1H3",HRXZRAXKKNUKRF-UHFFFAOYSA-N,?,,"HANSCH,C ET AL. (1995)",1.96
102377,589-18-4,589-18-4,[H]OC([H])([H])C1=C([H])C([H])=C(C([H])([H])[H])C([H])=C1[H],P-METHYL BENZYL ALCOHOL,4-Methylbenzyl alcohol,(4-methylphenyl)methanol,6973,DTXSID5025574,Cc1ccc(CO)cc1,"InChI=1S/C8H10O/c1-7-2-4-8(6-9)5-3-7/h2-5,9H,6H2,1H3",KMTDMTZBNYGUNX-UHFFFAOYSA-N,?,,"HANSCH,C ET AL. (1995)",1.58
102378,589-21-9,589-21-9,[H]C1=C([H])C(N([H])N([H])[H])=C([H])C([H])=C1Br,"HYDRAZINE, (4-BROMOPHENYL)-",p-Bromophenylhydrazine,(4-Bromophenyl)hydrazine,6974,DTXSID80207631,NNc1ccc(Br)cc1,"InChI=1S/C6H7BrN2/c7-5-1-3-6(9-8)4-2-5/h1-4,9H,8H2",NRESDXFFSNBDGP-UHFFFAOYSA-N,?,,POMONA (1987),1.39
102380,589-62-8,90365-63-2,[H]OC([H])(C([H])([H])C([H])([H])C([H])([H])[H])C([H])([H])C([H])([H])C([H])([H])C([H])([H])[H],4-OCTANOL,PUBCHEM_12346038,C8H18O,6976,DTXSID10492750,CCCC(O)CCCC,"InChI=1S/C8H18O/c1-3-5-7-8(9)6-4-2/h8-9H,3-7H2,1-2H3",WOFPPJOZXUTRAU-UHFFFAOYSA-N,?,,"FUNASAKI,N ET AL. (1986)",2.68
102381,589-82-2,26549-25-7,[H]OC([H])(C([H])([H])C([H])([H])[H])C([H])([H])C([H])([H])C([H])([H])C([H])([H])[H],3-HEPTANOL,(3S)-heptan-3-ol,C7H16O,6977,DTXSID20426425,CCCCC(O)CC,"InChI=1S/C7H16O/c1-3-5-6-7(8)4-2/h7-8H,3-6H2,1-2H3",RZKSECIXORKHQS-UHFFFAOYSA-N,?,,"HANSCH,C ET AL. (1995)",2.24
102382,589-91-3,589-91-3,[H]OC1([H])C([H])([H])C([H])([H])C([H])(C([H])([H])[H])C([H])([H])C1([H])[H],4-METHYLCYCLOHEXANOL,"Cyclohexanol, 4-methyl-",4-methylcyclohexan-1-ol,6978,DTXSID0060434,CC1CCC(O)CC1,"InChI=1S/C7H14O/c1-6-2-4-7(8)5-3-6/h6-8H,2-5H2,1H3",MQWCXKGKQLNYQG-UHFFFAOYSA-N,?,,"HANSCH,C ET AL. (1995)",1.79
102385,591-17-3,591-17-3,[H]C1=C([H])C(C([H])([H])[H])=C([H])C(Br)=C1[H],M-BROMOTOLUENE,3-Bromotoluene,1-bromo-3-methylbenzene,6981,DTXSID3024659,Cc1cc(Br)ccc1,"InChI=1S/C7H7Br/c1-6-3-2-4-7(8)5-6/h2-5H,1H3",WJIFKOVZNJTSGO-UHFFFAOYSA-N,?,,"DUNN,WJ ET AL. (1983)",3.41
102386,591-19-5,591-19-5,[H]C1=C([H])C(Br)=C([H])C(N([H])[H])=C1[H],M-BROMOANILINE,m-Bromoaniline,3-Bromoaniline,6982,DTXSID4060448,Nc1cc(Br)ccc1,"InChI=1S/C6H6BrN/c7-5-2-1-3-6(8)4-5/h1-4H,8H2",DHYHYLGCQVVLOQ-UHFFFAOYSA-N,?,,"HANSCH,C ET AL. (1995)",2.1
102387,591-20-8,591-20-8,[H]OC1=C([H])C([H])=C([H])C(Br)=C1[H],M-BROMOPHENOL,"Phenol, 3-bromo-",3-BROMOPHENOL,6983,DTXSID9060449,Oc1cc(Br)ccc1,"InChI=1S/C6H5BrO/c7-5-2-1-3-6(8)4-5/h1-4,8H",MNOJRWOWILAHAV-UHFFFAOYSA-N,?,,"HANSCH,C ET AL. (1995)",2.63
102389,591-27-5,591-27-5,[H]OC1=C([H])C(N([H])[H])=C([H])C([H])=C1[H],"PHENOL, 3-AMINO-",3-Aminophenol,3-aminophenol,6985,DTXSID3024497,Nc1cc(O)ccc1,"InChI=1S/C6H7NO/c7-5-2-1-3-6(8)4-5/h1-4,8H,7H2",CWLKGDAVCFYWJK-UHFFFAOYSA-N,?,,"HANSCH,C ET AL. (1995)",0.21
102390,591-31-1,591-31-1,[H]C(=O)C1=C([H])C([H])=C([H])C(OC([H])([H])[H])=C1[H],"BENZALDEHYDE, 3-METHOXY-",3-Methoxybenzaldehyde,3-methoxybenzaldehyde,6986,DTXSID5044447,COc1cccc(C=O)c1,"InChI=1S/C8H8O2/c1-10-8-4-2-3-7(5-8)6-9/h2-6H,1H3",WMPDAIZRQDCGFH-UHFFFAOYSA-N,?,,"BAZACO,JF & COCA,CM (1989)",1.71
102391,591-33-3,591-33-3,[H]C1=C([H])C(OC([H])([H])C([H])([H])[H])=C([H])C(N([H])C(=O)C([H])([H])[H])=C1[H],3-ETHOXYACETANILIDE,3'-Ethoxyacetanilide,N-(3-Ethoxyphenyl)acetamide,6987,DTXSID8060450,CC(=O)Nc1cc(ccc1)OCC,"InChI=1S/C10H13NO2/c1-3-13-10-6-4-5-9(7-10)11-8(2)12/h4-7H,3H2,1-2H3,(H,11,12)",YVTBOWVWYXJHLD-UHFFFAOYSA-N,?,,"HANSCH,C ET AL. (1995)",1.82
102393,591-50-4,591-50-4,[H]C1=C([H])C([H])=C(I)C([H])=C1[H],IODOBENZENE,"Benzene, iodo-",Iodobenzene,6989,DTXSID8060452,Ic1ccccc1,InChI=1S/C6H5I/c7-6-4-2-1-3-5-6/h1-5H,SNHMUERNLJLMHN-UHFFFAOYSA-N,?,,"HANSCH,C ET AL. (1995)",3.25
102394,591-54-8,591-54-8,[H]C1=NC(N([H])[H])=C([H])C([H])=N1,4-PYRIMIDINAMINE,4-Aminopyrimidine,,6990,DTXSID10207841,Nc1cc[n]c[n]1,"InChI=1S/C4H5N3/c5-4-1-2-6-3-7-4/h1-3H,(H2,5,6,7)",OYRRZWATULMEPF-UHFFFAOYSA-N,?,,"YAMAGAMI,C ET AL. (1990)",-0.25
102395,591-78-6,591-78-6,[H]C([H])([H])C(=O)C([H])([H])C([H])([H])C([H])([H])C([H])([H])[H],2-HEXANONE,2-Hexanone,hexan-2-one,6991,DTXSID0022068,CCCCC(C)=O,"InChI=1S/C6H12O/c1-3-4-5-6(2)7/h3-5H2,1-2H3",QQZOPKMRPOGIEB-UHFFFAOYSA-N,?,,"HANSCH,C ET AL. (1995)",1.38
102397,591-87-7,591-87-7,[H]C([H])=C([H])C([H])([H])OC(=O)C([H])([H])[H],ALLYL ACETATE,Allyl acetate,prop-2-en-1-yl acetate,6993,DTXSID9024437,CC(=O)OCC=C,"InChI=1S/C5H8O2/c1-3-4-7-5(2)6/h3H,1,4H2,2H3",FWZUNOYOVVKUNF-UHFFFAOYSA-N,?,,"HANSCH,C ET AL. (1995)",0.97
102398,591-93-5,591-93-5,[H]C([H])=C([H])C([H])([H])C([H])=C([H])[H],"1,4-PENTADIENE","1,4-Pentadiene","Penta-1,4-diene",6994,DTXSID8060456,C=CCC=C,"InChI=1S/C5H8/c1-3-5-4-2/h3-4H,1-2,5H2",QYZLKGVUSQXAMU-UHFFFAOYSA-N,?,,"HANSCH,C ET AL. (1995)",2.48
102399,592-31-4,592-31-4,[H]N([H])C(=O)N([H])C([H])([H])C([H])([H])C([H])([H])C([H])([H])[H],BUTYLUREA,N-Butylurea,1-butylurea,6995,DTXSID6020222,CCCCNC(N)=O,"InChI=1S/C5H12N2O/c1-2-3-4-7-5(6)8/h2-4H2,1H3,(H3,6,7,8)",CNWSQCLBDWYLAN-UHFFFAOYSA-N,?,,"HANSCH,C ET AL. (1995)",0.41
102401,592-41-6,592-41-6,[H]C([H])=C([H])C([H])([H])C([H])([H])C([H])([H])C([H])([H])[H],1-HEXENE,1-Hexene,hex-1-ene,6997,DTXSID4025402,CCCCC=C,"InChI=1S/C6H12/c1-3-5-6-4-2/h3H,1,4-6H2,2H3",LIKMAJRDDDTEIG-UHFFFAOYSA-N,?,,"HANSCH,C ET AL. (1995)",3.39
102402,592-42-7,592-42-7,[H]C([H])=C([H])C([H])([H])C([H])([H])C([H])=C([H])[H],"1,5-HEXADIENE","1,5-Hexadiene","hexa-1,5-diene",6998,DTXSID4049323,C=CCCC=C,"InChI=1S/C6H10/c1-3-5-6-4-2/h3-4H,1-2,5-6H2",PYGSKMBEVAICCR-UHFFFAOYSA-N,?,,"HANSCH,C ET AL. (1995)",2.87
102403,592-48-3,NOCAS_870644,[H]C([H])=C([H])/C([H])=C(\[H])C([H])([H])C([H])([H])[H],"1,3-HEXADIENE",,,6999,DTXSID00870644,CCC=CC=C,"InChI=1S/C6H10/c1-3-5-6-4-2/h3,5-6H,1,4H2,2H3/b6-5+",AHAREKHAZNPPMI-AATRIKPKSA-N,?,,"HANSCH,C ET AL. (1995)",3.16
102405,592-57-4,NOCAS_862259,[H]C1=C([H])C([H])([H])C([H])([H])C([H])=C1[H],"1,3-CYCLOHEXADIENE",,,7001,DTXSID30862259,C1CC=CC=C1,"InChI=1S/C6H8/c1-2-4-6-5-3-1/h1-4H,5-6H2",MGNZXYYWBUKAII-UHFFFAOYSA-N,?,,"HANSCH,C ET AL. (1995)",2.47
102406,592-76-7,592-76-7,[H]C([H])=C([H])C([H])([H])C([H])([H])C([H])([H])C([H])([H])C([H])([H])[H],1-HEPTENE,1-Heptene,hept-1-ene,7002,DTXSID2060466,CCCCCC=C,"InChI=1S/C7H14/c1-3-5-7-6-4-2/h3H,1,4-7H2,2H3",ZGEGCLOFRBLKSE-UHFFFAOYSA-N,?,,"HANSCH,C ET AL. (1995)",3.99
102407,592-82-5,592-82-5,[H]C([H])([H])C([H])([H])C([H])([H])C([H])([H])N=C=S,"BUTANE, 1-ISOTHIOCYANATO-","Butane, 1-isothiocyanato-",1-Isothiocyanatobutane,7003,DTXSID7060467,CCCCN=C=S,"InChI=1S/C5H9NS/c1-2-3-4-6-5-7/h2-4H2,1H3",LIMQQADUEULBSO-UHFFFAOYSA-N,?,,"AUGUSTIN,S ET AL. (1987)",2.92
102409,593-60-2,593-60-2,[H]C([H])=C([H])Br,BROMOETHENE,Vinyl bromide,bromoethene,7005,DTXSID8021432,C=CBr,"InChI=1S/C2H3Br/c1-2-3/h2H,1H2",INLLPKCGLOXCIV-UHFFFAOYSA-N,?,,"HANSCH,C ET AL. (1995)",1.57
102410,593-70-4,593-70-4,[H]C([H])(F)Cl,CHLOROFLUOROMETHANE,Chlorofluoromethane,chloro(fluoro)methane,7006,DTXSID6020305,FCCl,InChI=1S/CH2ClF/c2-1-3/h1H2,XWCDCDSDNJVCLO-UHFFFAOYSA-N,?,,"HANSCH,C ET AL. (1995)",0.51
102413,594-36-5,594-36-5,[H]C([H])([H])C([H])([H])C(Cl)(C([H])([H])[H])C([H])([H])[H],"BUTANE, 2-CHLORO-2-METHYL-","Butane, 2-chloro-2-methyl-",2-Chloro-2-methylbutane,7007,DTXSID0060484,CCC(C)(C)Cl,"InChI=1S/C5H11Cl/c1-4-5(2,3)6/h4H2,1-3H3",CRNIHJHMEQZAAS-UHFFFAOYSA-N,?,,"HANSCH,C ET AL. (1995)",2.52
102415,594-65-0,594-65-0,[H]N([H])C(=O)C(Cl)(Cl)Cl,TRICHLOROACETAMIDE,"2,2,2-Trichloroacetamide","2,2,2-trichloroacetamide",7009,DTXSID5021671,NC(=O)C(Cl)(Cl)Cl,"InChI=1S/C2H2Cl3NO/c3-2(4,5)1(6)7/h(H2,6,7)",UPQQXPKAYZYUKO-UHFFFAOYSA-N,?,,"HANSCH,C ET AL. (1995)",1.04
102416,594-70-7,594-70-7,[H]C([H])([H])C([N+](=O)[O-])(C([H])([H])[H])C([H])([H])[H],2-METHYL-2-NITROPROPANE,"Propane, 2-methyl-2-nitro-","N,N-dihydroxy-2-methylpropan-2-amine",7010,DTXSID0060488,CC(C)(C)[N+]([O-])=O,"InChI=1S/C4H9NO2/c1-4(2,3)5(6)7/h1-3H3",AIMREYQYBFBEGQ-UHFFFAOYSA-N,?,,"HANSCH,C ET AL. (1995)",1.17
102417,,595-21-1,[H]OC1([H])C([H])(OC2([H])C([H])([H])C([H])([H])C3(C([H])([H])[H])C([H])(C([H])([H])C([H])([H])C4([H])C3([H])C([H])([H])C([H])([H])C3(C([H])([H])[H])C4(O[H])C([H])([H])C([H])(O[H])C34C([H])=C([H])C(=O)OC4([H])[H])C2([H])[H])OC([H])(C([H])([H])[H])C([H])(O[H])C1([H])OC([H])([H])[H],STROSPESIDE,,,7011,,CC1OC(OC2CCC3(C)C(C2)CCC2C3CCC3(C)C4(COC(=O)C=C4)C(O)CC32O)C(O)C(OC)C1O,"InChI=1S/C30H46O9/c1-16-23(33)25(36-4)24(34)26(38-16)39-18-7-10-27(2)17(13-18)5-6-20-19(27)8-11-28(3)29(12-9-22(32)37-15-29)21(31)14-30(20,28)35/h9,12,16-21,23-26,31,33-35H,5-8,10-11,13-15H2,1-4H3",LZFZSVFZDQMONS-UHFFFAOYSA-N,?,,"HANSCH,C ET AL. (1995)",0.59
102419,595-46-0,595-46-0,[H]OC(=O)C(C(=O)O[H])(C([H])([H])[H])C([H])([H])[H],DIMETHYLMALONIC ACID,"Propanedioic acid, dimethyl-","2,2-dimethylpropanedioic acid",7013,DTXSID5060489,CC(C)(C(O)=O)C(O)=O,"InChI=1S/C5H8O4/c1-5(2,3(6)7)4(8)9/h1-2H3,(H,6,7)(H,8,9)",OREAFAJWWJHCOT-UHFFFAOYSA-N,?,,"HANSCH,C ET AL. (1995)",0.39
102420,597-35-3,NOCAS_870657,[H]C([H])([H])C([H])([H])S(=O)(=O)C([H])([H])C([H])([H])[H],DIETHYL SULFONE,,,7014,DTXSID30870657,CCS(=O)(=O)CC,"InChI=1S/C4H10O2S/c1-3-7(5,6)4-2/h3-4H2,1-2H3",MBDUIEKYVPVZJH-UHFFFAOYSA-N,?,,"HANSCH,C ET AL. (1995)",-0.59
102421,598-03-8,598-03-8,[H]C([H])([H])C([H])([H])C([H])([H])S(=O)(=O)C([H])([H])C([H])([H])C([H])([H])[H],PROPYL SULFONE,"Propane, 1,1'-sulfonylbis-",1-propylsulfonylpropane,7015,DTXSID6060501,CCCS(=O)(=O)CCC,"InChI=1S/C6H14O2S/c1-3-5-9(7,8)6-4-2/h3-6H2,1-2H3",JEXYCADTAFPULN-UHFFFAOYSA-N,?,,"HANSCH,C ET AL. (1995)",0.39
102423,598-38-9,598-38-9,[H]OC([H])([H])C([H])(Cl)Cl,"2,2-DICHLOROETHANOL","2,2-Dichloroethanol","2,2-dichloroethanol",7017,DTXSID4024989,OCC(Cl)Cl,"InChI=1S/C2H4Cl2O/c3-2(4)1-5/h2,5H,1H2",IDJOCJAIQSKSOP-UHFFFAOYSA-N,?,,"HANSCH,C ET AL. (1995)",0.37