ChemID,source_casrn,CAS,SMILES,NAME,preferred_name,iupac,MPID,dsstox_substance_id,Canonical_QSARr,InChI_Code_QSARr,InChI Key_QSARr,Salt_Solvent,Salt_Solvent_ID,Kow Reference,LogP
103089,950-37-8,950-37-8,[H]C([H])([H])OC1=NN(C([H])([H])SP(=S)(OC([H])([H])[H])OC([H])([H])[H])C(=O)S1,METHIDATHION,Methidathion,"S-[(5-methoxy-2-oxo-1,3,4-thiadiazol-3(2H)-yl)methyl] O,O-dimethyl phosphorodithioate",7660,DTXSID5020819,COC1=NN(CSP(=S)(OC)OC)C(=O)S1,"InChI=1S/C6H11N2O4PS3/c1-10-5-7-8(6(9)16-5)4-15-13(14,11-2)12-3/h4H2,1-3H3",MEBQXILRKZHVCX-UHFFFAOYSA-N,?,,"TOMLIN,C (1997)",2.2
103090,951-77-9,NOCAS_862483,[H]OC([H])([H])C1([H])OC([H])(N2C(=O)N=C(N([H])[H])C([H])=C2[H])C([H])([H])C1([H])O[H],"CYTIDINE, 2'-DEOXY-",2'-dC B-D-threo,"4-amino-1-[(2R,4R,5R)-4-hydroxy-5-(hydroxymethyl)oxolan-2-yl]pyrimidin-2-one",7661,DTXSID00862483,NC1C=CN(C2CC(O)C(CO)O2)C(=O)N=1,"InChI=1S/C9H13N3O4/c10-7-1-2-12(9(15)11-7)8-3-5(14)6(4-13)16-8/h1-2,5-6,8,13-14H,3-4H2,(H2,10,11,15)",CKTSBUTUHBMZGZ-UHFFFAOYSA-N,?,,"HANSCH,C ET AL. (1995)",-1.77
103092,952-12-5,952-12-5,[H]C1=C([H])C([H])=C2C(=N1)N=C(C1=C([H])C([H])=C(C([H])([H])[H])C([H])=C1[H])N2[H],"2-(4-Methylphenyl)-imidazo[4,5-b]pyridine",,,7663,DTXSID40877117,Cc1ccc(cc1)-c1[nH]c2ccc[n]c2[n]1,"InChI=1S/C13H11N3/c1-9-4-6-10(7-5-9)12-15-11-3-2-8-14-13(11)16-12/h2-8H,1H3,(H,14,15,16)",GFNPNGODFARHMH-UHFFFAOYSA-N,?,,"ERTEPINAR,H ET AL. (1995)",3.02
103093,952-13-6,952-13-6,[H]C1=NC2=C(C([H])=C1[H])N([H])C(C1=C([H])C([H])=C(Cl)C([H])=C1[H])=N2,"2-(4-Chlorophenyl)-imidazo[4,5-b]pyridine","1H-Imidazo[4,5-b]pyridine, 2-(4-chlorophenyl)-",C12H8ClN3,7664,DTXSID80440021,Clc1ccc(cc1)-c1[nH]c2ccc[n]c2[n]1,"InChI=1S/C12H8ClN3/c13-9-5-3-8(4-6-9)11-15-10-2-1-7-14-12(10)16-11/h1-7H,(H,14,15,16)",ZCRHTMNMCCAMPZ-UHFFFAOYSA-N,?,,"ERTEPINAR,H ET AL. (1995)",2.95
103094,952-14-7,952-14-7,[H]C1=C([H])C([H])=C2C(=N1)N=C(C1=C([H])C([H])=C(F)C([H])=C1[H])N2[H],"2-(4-Fluorophenyl)-imidazo[4,5-b]pyridine",,,7665,DTXSID00877052,Fc1ccc(cc1)-c1[nH]c2ccc[n]c2[n]1,"InChI=1S/C12H8FN3/c13-9-5-3-8(4-6-9)11-15-10-2-1-7-14-12(10)16-11/h1-7H,(H,14,15,16)",IQQXHNPHJYFNAX-UHFFFAOYSA-N,?,,"ERTEPINAR,H ET AL. (1995)",2.52
103096,958-09-8,NOCAS_862485,[H]OC([H])([H])C1([H])OC([H])(N2C([H])=NC3=C(N([H])[H])N=C([H])N=C32)C([H])([H])C1([H])O[H],"ADENOSINE, 2'-DEOXY-",,,7667,DTXSID20862485,Nc1[n]c[n]c2c1[n]c[n]2C1CC(O)C(CO)O1,"InChI=1S/C10H13N5O3/c11-9-8-10(13-3-12-9)15(4-14-8)7-1-5(17)6(2-16)18-7/h3-7,16-17H,1-2H2,(H2,11,12,13)",OLXZPDWKRNYJJZ-UHFFFAOYSA-N,?,,"HANSCH,C ET AL. (1995)",-0.55
103100,961-11-5|22248-79-9,961-11-5|22248-79-9,[H]C1=C(Cl)C(/C(OP(=O)(OC([H])([H])[H])OC([H])([H])[H])=C(/[H])Cl)=C([H])C(Cl)=C1Cl,"STIROFOS, TETRACHLORVINPHOS",Tetrachlorovinphos,C10H9Cl4O4P,7669|10510,DTXSID1021320|DTXSID1032648,COP(=O)(OC(=CCl)c1cc(Cl)c(Cl)cc1Cl)OC,"InChI=1S/C10H9Cl4O4P/c1-16-19(15,17-2)18-10(5-11)6-3-8(13)9(14)4-7(6)12/h3-5H,1-2H3/b10-5+",UBCKGWBNUIFUST-BJMVGYQFSA-N,?,,"HANSCH,C ET AL. (1995)",3.53
103101,961-22-8,961-22-8,[H]C1=C([H])C([H])=C2C(=O)N(C([H])([H])SP(=O)(OC([H])([H])[H])OC([H])([H])[H])N=NC2=C1[H],METHYL AZINPHOS O-ANALOG,Azinphos-methyl oxon,"O,O-dimethyl S-[(4-oxo-1,2,3-benzotriazin-3(4H)-yl)methyl] phosphorothioate",7670,DTXSID4058499,COP(=O)(OC)SCN1N=Nc2ccccc2C1=O,"InChI=1S/C10H12N3O4PS/c1-16-18(15,17-2)19-7-13-10(14)8-5-3-4-6-9(8)11-12-13/h3-6H,7H2,1-2H3",NYHRHBKYEVSBHJ-UHFFFAOYSA-N,?,,"HANSCH,C ET AL. (1995)",0.78
103104,963-03-1,963-03-1,[H]C1=C([H])C(S(=O)(=O)N([H])C(=O)N([H])C2([H])C([H])([H])C([H])([H])C([H])([H])C([H])([H])C2([H])[H])=C([H])C([H])=C1Cl,"BENZENESULFONAMIDE, 4-CHLORO-N-[(CYCLOHEXYLAMINO",,,7672,DTXSID20877236,O=C(NS(=O)(=O)c1ccc(Cl)cc1)NC1CCCCC1,"InChI=1S/C13H17ClN2O3S/c14-10-6-8-12(9-7-10)20(18,19)16-13(17)15-11-4-2-1-3-5-11/h6-9,11H,1-5H2,(H2,15,16,17)",TYZHJGCYLYXPSB-UHFFFAOYSA-N,?,,SANGSTER (1993),3.38
103105,963-39-3,963-39-3,[H]C1=C([H])C([H])=C(C2=[N+]([O-])C([H])([H])C(=O)N([H])C3=C([H])C([H])=C(Cl)C([H])=C32)C([H])=C1[H],"2H-1,4-BENZODIAZEPIN-2-ONE, 7-CHLORO-1,3-DIHYDRO",Demoxepam,"7-chloro-5-phenyl-1,3-dihydro-2H-1,4-benzodiazepin-2-one 4-oxide",7673,DTXSID4046155,[O-][N+]1CC(=O)Nc2ccc(Cl)cc2C=1c1ccccc1,"InChI=1S/C15H11ClN2O2/c16-11-6-7-13-12(8-11)15(10-4-2-1-3-5-10)18(20)9-14(19)17-13/h1-8H,9H2,(H,17,19)",GGRWZBVSUZZMKS-UHFFFAOYSA-N,?,,SANGSTER (1993),1.49
103106,968-81-0,968-81-0,[H]C1=C([H])C(S(=O)(=O)N([H])C(=O)N([H])C2([H])C([H])([H])C([H])([H])C([H])([H])C([H])([H])C2([H])[H])=C([H])C([H])=C1C(=O)C([H])([H])[H],DIMELIN,Acetohexamide,4-acetyl-N-(cyclohexylcarbamoyl)benzenesulfonamide,7674,DTXSID7020007,CC(=O)c1ccc(cc1)S(=O)(=O)NC(=O)NC1CCCCC1,"InChI=1S/C15H20N2O4S/c1-11(18)12-7-9-14(10-8-12)22(20,21)17-15(19)16-13-5-3-2-4-6-13/h7-10,13H,2-6H2,1H3,(H2,16,17,19)",VGZSUPCWNCWDAN-UHFFFAOYSA-N,?,,SANGSTER (1993),2.44
103108,976-70-5,976-70-5,[H]C1=C2C([H])([H])C([H])([H])C3([H])C4([H])C([H])([H])C([H])([H])C5(OC(=O)C([H])([H])C5([H])[H])C4([H])C([H])([H])C([H])([H])C3(C([H])([H])[H])C2(C([H])([H])[H])C([H])([H])C([H])([H])C1=O,"6,7-DIHYDROCANRENONE",,,7676,DTXSID10875403,CC12CCC3C(CCC43CCC(=O)O4)C1CCC1=CC(=O)CCC21C,"InChI=1S/C22H30O3/c1-20-9-5-15(23)13-14(20)3-4-17-16-6-11-22(12-8-19(24)25-22)18(16)7-10-21(17,20)2/h13,16-18H,3-12H2,1-2H3",XDMUECKKVXCUQN-UHFFFAOYSA-N,?,,"HANSCH,C ET AL. (1995)",2.98
103109,976-71-6,976-71-6,[H]C1=C([H])C2([H])C([H])(C([H])([H])C([H])([H])C3(C([H])([H])[H])C2([H])C([H])([H])C([H])([H])C32OC(=O)C([H])([H])C2([H])[H])C2(C([H])([H])[H])C1=C([H])C(=O)C([H])([H])C2([H])[H],CANRENONE,Canrenone,"(8R,9S,10R,13S,14S,17R)-10,13-dimethyl-1,8,9,10,11,12,13,14,15,16-decahydro-3'H-spiro[cyclopenta[a]phenanthrene-17,2'-furan]-3,5'(2H,4'H)-dione",7677,DTXSID3045930,CC12CCC3C(C=CC4=CC(=O)CCC43C)C1CCC12CCC(=O)O1,"InChI=1S/C22H28O3/c1-20-9-5-15(23)13-14(20)3-4-16-17(20)6-10-21(2)18(16)7-11-22(21)12-8-19(24)25-22/h3-4,13,16-18H,5-12H2,1-2H3",UJVLDDZCTMKXJK-UHFFFAOYSA-N,?,,"HANSCH,C ET AL. (1995)",2.68
103110,982-24-1,982-24-1,[H]OC([H])([H])C([H])([H])N1C([H])([H])C([H])([H])N(C([H])([H])C([H])([H])/C([H])=C2/C3=C([H])C([H])=C([H])C([H])=C3SC3=C([H])C([H])=C(Cl)C([H])=C32)C([H])([H])C1([H])[H],Clopenthixol,Clopenthixol,,7678,DTXSID9048223,OCCN1CCN(CCC=C2c3ccccc3Sc3ccc(Cl)cc32)CC1,"InChI=1S/C22H25ClN2OS/c23-17-7-8-22-20(16-17)18(19-4-1-2-6-21(19)27-22)5-3-9-24-10-12-25(13-11-24)14-15-26/h1-2,4-8,16,26H,3,9-15H2/b18-5-",WFPIAZLQTJBIFN-DVZOWYKESA-N,?,,"HANSCH,C ET AL. (1995)",4.18
103114,997-95-5,997-95-5,[H]C([H])([H])C([H])(C([H])([H])[H])C([H])([H])N(N=O)C([H])([H])C([H])(C([H])([H])[H])C([H])([H])[H],N-NITROSO-DIISOBUTYLAMINE,N-Nitrosodiisobutylamine,"N,N-bis(2-methylpropyl)nitrous amide",7680,DTXSID90244219,CC(C)CN(CC(C)C)N=O,"InChI=1S/C8H18N2O/c1-7(2)5-10(9-11)6-8(3)4/h7-8H,5-6H2,1-4H3",XLZCLFRMPCBSDI-UHFFFAOYSA-N,?,,"VERA,A ET AL. (1992)",2.34
103115,999-10-0,999-10-0,[H]OC([H])([H])C([H])([H])C([H])([H])C(=O)OC([H])([H])C([H])([H])[H],"BUTANOIC ACID, 4-HYDROXY-, ETHYL ESTER",ethyl 4-hydroxybutanoate,C6H12O3,7681,DTXSID20326810,CCOC(=O)CCCO,"InChI=1S/C6H12O3/c1-2-9-6(8)4-3-5-7/h7H,2-5H2,1H3",AYPJVXQBVHCUCJ-UHFFFAOYSA-N,?,,SANGSTER (1994),0.43
103116,999-29-1,999-29-1,[H]N=[N+]=C([H])C(=O)N([H])C([H])([H])C(=O)OC([H])([H])C([H])([H])[H],"N-DIAZOACETYLGLYCINE,ETHYL ESTER",,,7682,DTXSID30878936,CCOC(=O)CNC(=O)C=[N+]=N,"InChI=1S/C6H9N3O3/c1-2-12-6(11)4-8-5(10)3-9-7/h3,7H,2,4H2,1H3/p+1",SCBAGJGZALXMMC-UHFFFAOYSA-O,?,,"HANSCH,C ET AL. (1995)",-0.08
103118,999-81-5,999-81-5,[H]C([H])(Cl)C([H])([H])[N+](C([H])([H])[H])(C([H])([H])[H])C([H])([H])[H],CHLORMEQUAT CHLORIDE,Chlormequat chloride,"2-chloro-N,N,N-trimethylethanaminium chloride",7684,DTXSID6020303,C[N+](C)(C)CCCl,"InChI=1S/C5H13ClN/c1-7(2,3)5-4-6/h4-5H2,1-3H3/q+1",JUZXDNPBRPUIOR-UHFFFAOYSA-N,[Cl-],1,"BAKER,EA ET AL. (1992)",-3.8
103119,1000-36-8,1000-36-8,[H]C([H])([H])C([H])([H])C([H])([H])C([H])([H])C([H])([H])OP(=O)(OC([H])([H])C([H])([H])C([H])([H])C([H])([H])C([H])([H])[H])C([H])([H])[H],"Phosphonic acid, methyl- dipentyl ester",Dipentyl methylphosphonate,1-(methyl-pentoxyphosphoryl)oxypentane,7685,DTXSID80142851,CP(=O)(OCCCCC)OCCCCC,"InChI=1S/C11H25O3P/c1-4-6-8-10-13-15(3,12)14-11-9-7-5-2/h4-11H2,1-3H3",IYWHBXSPNUEWOS-UHFFFAOYSA-N,?,,"KRIKORIAN,SE ET AL. (1987)",3.74
103120,1000-49-3,NOCAS_871819,[H]C([H])([H])C([H])([H])C([H])([H])C([H])([H])[Si](C([H])([H])[H])(C([H])([H])[H])C([H])([H])[H],"SILANE, BUTYL TRIMETHYL",,,7686,DTXSID60871819,CCCC[Si](C)(C)C,"InChI=1S/C7H18Si/c1-5-6-7-8(2,3)4/h5-7H2,1-4H3",LYVYUAHSSSHKHC-UHFFFAOYSA-N,?,,"HANSCH,C ET AL. (1995)",4.2
103123,1002-57-9,1002-57-9,[H]OC(=O)C([H])([H])C([H])([H])C([H])([H])C([H])([H])C([H])([H])C([H])([H])C([H])([H])N([H])[H],8-Aminooctanoic acid,omega-Aminocaprylic acid,8-Aminooctanoic acid,7688,DTXSID00143007,NCCCCCCCC(O)=O,"InChI=1S/C8H17NO2/c9-7-5-3-1-2-4-6-8(10)11/h1-7,9H2,(H,10,11)",UQXNEWQGGVUVQA-UHFFFAOYSA-N,?,,"TSAI,RS ET AL. (1991)",-2.55
103124,1003-09-4,1003-09-4,[H]C1=C([H])C([H])=C(Br)S1,2-BROMOTHIOPHENE,"Thiophene, 2-bromo-",2-Bromothiophene,7689,DTXSID4061389,Brc1ccc[s]1,InChI=1S/C4H3BrS/c5-4-2-1-3-6-4/h1-3H,TUCRZHGAIRVWTI-UHFFFAOYSA-N,?,,"HANSCH,C ET AL. (1995)",2.75
103125,1003-29-8,1003-29-8,[H]C(=O)C1=C([H])C([H])=C([H])N1[H],PYRROLE-2-CARBOXALDEHYDE,1H-Pyrrole-2-carboxaldehyde,1H-pyrrole-2-carbaldehyde,7690,DTXSID3061392,O=Cc1ccc[nH]1,"InChI=1S/C5H5NO/c7-4-5-2-1-3-6-5/h1-4,6H",ZSKGQVFRTSEPJT-UHFFFAOYSA-N,?,,"HANSCH,C ET AL. (1995)",0.64
103127,1004-36-0,1004-36-0,[H]C1=C(C([H])([H])[H])OC(C([H])([H])[H])=C([H])C1=O,"GAMMA-2,6-DIMETHYLPYRONE","2,6-Dimethyl-4H-pyran-4-one","2,6-dimethylpyran-4-one",7692,DTXSID6074415,CC1=CC(=O)C=C(C)O1,"InChI=1S/C7H8O2/c1-5-3-7(8)4-6(2)9-5/h3-4H,1-2H3",VSYFZULSKMFUJJ-UHFFFAOYSA-N,?,,"HANSCH,C ET AL. (1995)",0.1
103128,1004-66-6,1004-66-6,[H]C1=C([H])C(C([H])([H])[H])=C(OC([H])([H])[H])C(C([H])([H])[H])=C1[H],"2,6-DIMETHYLANISOLE","2,6-Dimethylanisole","2-methoxy-1,3-dimethylbenzene",7693,DTXSID40143248,COc1c(C)cccc1C,"InChI=1S/C9H12O/c1-7-5-4-6-8(2)9(7)10-3/h4-6H,1-3H3",GFNZJAUVJCGWLW-UHFFFAOYSA-N,?,,"HANSCH,C ET AL. (1995)",3.02
103129,1005-31-8,1005-31-8,CN(C)C1=CC=[N+]([O-])C=C1,PYRIDINE-1-OXIDE-4-DIMETHYLAMINO,"N,N-Dimethyl-4-pyridinamine, 1-oxide","N,N-dimethyl-1-oxidopyridin-1-ium-4-amine",7694,DTXSID00143345,CN(C)c1cc[n+]([O-])cc1,"InChI=1S/C7H10N2O/c1-8(2)7-3-5-9(10)6-4-7/h3-6H,1-2H3",WZMNQOYCHMGCSS-UHFFFAOYSA-N,?,,BIOBYTE STARLIST (2009),-0.9
103131,1006-64-0,56523-47-8,[H]C1=C([H])C([H])=C(C2([H])N([H])C([H])([H])C([H])([H])C2([H])[H])C([H])=C1[H],"PYRROLIDINE, 2-PHENYL-",(R)-2-PHENYLPYRROLIDINE,C10H13N,7696,DTXSID40364077,C1CCC(N1)c1ccccc1,"InChI=1S/C10H13N/c1-2-5-9(6-3-1)10-7-4-8-11-10/h1-3,5-6,10-11H,4,7-8H2",JUTDHSGANMHVIC-UHFFFAOYSA-N,?,,SANGSTER (1993),1.89
103132,1006-94-6,1006-94-6,[H]C1=C([H])C2=C(C([H])=C1OC([H])([H])[H])C([H])=C([H])N2[H],5-METHOXYINDOLE,5-Methoxyindole,5-Methoxy-1H-indole,7697,DTXSID80143424,COc1cc2cc[nH]c2cc1,"InChI=1S/C9H9NO/c1-11-8-2-3-9-7(6-8)4-5-10-9/h2-6,10H,1H3",DWAQDRSOVMLGRQ-UHFFFAOYSA-N,?,,"HANSCH,C ET AL. (1995)",2.06
103133,1007-28-9,1007-28-9,[H]N([H])C1=NC(N([H])C([H])([H])C([H])([H])[H])=NC(Cl)=N1,DESISOPROPYLATRAZINE,Deisopropylatrazine,"6-chloro-N-ethyl-1,3,5-triazine-2,4-diamine",7698,DTXSID0037495,CCNc1[n]c(N)[n]c(Cl)[n]1,"InChI=1S/C5H8ClN5/c1-2-8-5-10-3(6)9-4(7)11-5/h2H2,1H3,(H3,7,8,9,10,11)",IVENSCMCQBJAKW-UHFFFAOYSA-N,?,,"FINIZIO,A ET AL. (1991)",1.15
103136,1008-89-5,1008-89-5,[H]C1=C([H])C([H])=C([H])C(C2=C([H])C([H])=C([H])C([H])=C2[H])=N1,2-PHENYLPYRIDINE,"Pyridine, 2-phenyl-",2-PHENYLPYRIDINE,7700,DTXSID6074417,c1ccccc1-c1cccc[n]1,InChI=1S/C11H9N/c1-2-6-10(7-3-1)11-8-4-5-9-12-11/h1-9H,VQGHOUODWALEFC-UHFFFAOYSA-N,?,,"HANSCH,C ET AL. (1995)",2.63
103137,1009-17-2,1009-17-2,[H]C1=C([H])C([H])=C(C(=O)N([H])C([H])([H])C([H])([H])N([H])[H])C([H])=C1[H],"BENZAMIDE,N-(2-AMINOETHYL)",N-(2-aminoethyl)benzamide,C9H12N2O,7701,DTXSID20329720,NCCNC(=O)c1ccccc1,"InChI=1S/C9H12N2O/c10-6-7-11-9(12)8-4-2-1-3-5-8/h1-5H,6-7,10H2,(H,11,12)",NHWKHNPRDPAXLM-UHFFFAOYSA-N,?,,"HANSCH,C ET AL. (1995)",0.06
103138,1009-61-6,1009-61-6,[H]C1=C([H])C(C(=O)C([H])([H])[H])=C([H])C([H])=C1C(=O)C([H])([H])[H],P-ACETYLACETOPHENONE,"1,1-(1,4-Phenylene)bis-ethanone","1,1'-benzene-1,4-diyldiethanone",7702,DTXSID7021657,CC(=O)c1ccc(cc1)C(C)=O,"InChI=1S/C10H10O2/c1-7(11)9-3-5-10(6-4-9)8(2)12/h3-6H,1-2H3",SKBBQSLSGRSQAJ-UHFFFAOYSA-N,?,,"HANSCH,C ET AL. (1995)",1.34
103140,1011-54-7,NOCAS_871964,[H]OC(=O)/C([H])=C(\[H])C1=C(OC([H])([H])[H])C([H])=C([H])C([H])=C1[H],"2-PROPENOIC ACID, 3-(2-METHOXYPHENYL)-, (E)-",,,7704,DTXSID50871964,COc1ccccc1C=CC(O)=O,"InChI=1S/C10H10O3/c1-13-9-5-3-2-4-8(9)6-7-10(11)12/h2-7H,1H3,(H,11,12)/b7-6+",FEGVSPGUHMGGBO-VOTSOKGWSA-N,?,,SANGSTER (1994),2.54
103142,1014-69-3,1014-69-3,[H]N(C1=NC(N([H])C([H])(C([H])([H])[H])C([H])([H])[H])=NC(SC([H])([H])[H])=N1)C([H])([H])[H],DESMETRYNE,Desmetryn,"N-methyl-6-(methylsulfanyl)-N'-(propan-2-yl)-1,3,5-triazine-2,4-diamine",7705,DTXSID6041842,CNc1[n]c([n]c(NC(C)C)[n]1)SC,"InChI=1S/C8H15N5S/c1-5(2)10-7-11-6(9-3)12-8(13-7)14-4/h5H,1-4H3,(H2,9,10,11,12,13)",HCRWJJJUKUVORR-UHFFFAOYSA-N,?,,"TOMLIN,C (1994)",2.38
103143,1014-70-6,1014-70-6,[H]N(C1=NC(SC([H])([H])[H])=NC(N([H])C([H])([H])C([H])([H])[H])=N1)C([H])([H])C([H])([H])[H],SIMETRYN,Simetryn,"N,N'-diethyl-6-(methylsulfanyl)-1,3,5-triazine-2,4-diamine",7706,DTXSID8037596,CSc1[n]c(NCC)[n]c(NCC)[n]1,"InChI=1S/C8H15N5S/c1-4-9-6-11-7(10-5-2)13-8(12-6)14-3/h4-5H2,1-3H3,(H2,9,10,11,12,13)",MGLWZSOBALDPEK-UHFFFAOYSA-N,?,,"FINIZIO,A ET AL. (1991)",2.8
103146,1022-45-3,1022-45-3,[H]C1=C([H])C([H])=C(C2=NC(=O)C3=C([H])C([H])=C([H])C([H])=C3N2[H])C([H])=C1[H],"4(1H)-QUINAZOLINONE, 2-PHENYL-",2-phenylquinazolin-4-ol,C14H10N2O,7708,DTXSID60299539,O=C1N=C(Nc2ccccc21)c1ccccc1,"InChI=1S/C14H10N2O/c17-14-11-8-4-5-9-12(11)15-13(16-14)10-6-2-1-3-7-10/h1-9H,(H,15,16,17)",VDULOAUXSMYUMG-UHFFFAOYSA-N,?,,SANGSTER (1993),2.53
103147,1022-66-8,1022-66-8,[H]C1=C([H])C([H])=C(C2([H])C(=O)N([H])C3=C([H])C([H])=C([H])C([H])=C3C2([H])[H])C([H])=C1[H],"2(1H)-QUINOLINONE, 3,4-DIHYDRO-3-PHENYL-",PUBCHEM_13836253,C15H13NO,7709,DTXSID80550811,O=C1Nc2ccccc2CC1c1ccccc1,"InChI=1S/C15H13NO/c17-15-13(11-6-2-1-3-7-11)10-12-8-4-5-9-14(12)16-15/h1-9,13H,10H2,(H,16,17)",WIGSEVPKWYDXGT-UHFFFAOYSA-N,?,,SANGSTER (1993),2.93
103148,1024-57-3,1024-57-3,[H]C1(Cl)C2([H])OC2([H])C2([H])C3(Cl)C(Cl)=C(Cl)C(Cl)(C3(Cl)Cl)C12[H],HEPTACHLOR EPOXIDE,Heptachlor epoxide,"2,3,4,5,6,7,7-heptachloro-1b,2,5,5a,6,6a-hexahydro-1aH-2,5-methanoindeno[1,2-b]oxirene",7710,DTXSID1024126,ClC1(Cl)C2(Cl)C3C4OC4C(Cl)C3C1(Cl)C(Cl)=C2Cl,"InChI=1S/C10H5Cl7O/c11-3-1-2(4-5(3)18-4)9(15)7(13)6(12)8(1,14)10(9,16)17/h1-5H",ZXFXBSWRVIQKOD-UHFFFAOYSA-N,?,,SANGSTER (1993),4.98
103150,1030-06-4,1030-06-4,[H]OC(=O)C([H])([H])C([H])([H])C([H])([H])C1=C([H])C([H])=C(N(C([H])([H])C([H])([H])Cl)C([H])([H])C([H])([H])Cl)C([H])=C1[H],Sodium Chlorambucil,Chlorambucil sodium salt,sodium 4-[4-[bis(2-chloroethyl)amino]phenyl]butanoate,7712,DTXSID90145611,OC(=O)CCCc1ccc(cc1)N(CCCl)CCCl,"InChI=1S/C14H19Cl2NO2/c15-8-10-17(11-9-16)13-6-4-12(5-7-13)2-1-3-14(18)19/h4-7H,1-3,8-11H2,(H,18,19)",JCKYGMPEJWAADB-UHFFFAOYSA-N,[Na+],7,"HANSCH,C ET AL. (1995)",0.93
103151,1031-07-8,1031-07-8,[H]C1([H])OS(=O)(=O)OC([H])([H])C2([H])C3(Cl)C(Cl)=C(Cl)C(Cl)(C3(Cl)Cl)C12[H],ENDOSULFAN SULFATE,Endosulfan sulfate,"6,7,8,9,10,10-hexachloro-1,5,5a,6,9,9a-hexahydro-6,9-methano-2,4,3-benzodioxathiepine 3,3-dioxide",7713,DTXSID3037541,O=S1(=O)OCC2C(CO1)C1(Cl)C(Cl)=C(Cl)C2(Cl)C1(Cl)Cl,"InChI=1S/C9H6Cl6O4S/c10-5-6(11)8(13)4-2-19-20(16,17)18-1-3(4)7(5,12)9(8,14)15/h3-4H,1-2H2",AAPVQEMYVNZIOO-UHFFFAOYSA-N,?,,"HANSCH,C ET AL. (1995)",3.66
103152,1034-01-1,1034-01-1,[H]OC1=C([H])C(C(=O)OC([H])([H])C([H])([H])C([H])([H])C([H])([H])C([H])([H])C([H])([H])C([H])([H])C([H])([H])[H])=C([H])C(O[H])=C1O[H],OCTYL GALLATE,Octyl gallate,"octyl 3,4,5-trihydroxybenzoate",7714,DTXSID4040713,CCCCCCCCOC(=O)c1cc(O)c(O)c(O)c1,"InChI=1S/C15H22O5/c1-2-3-4-5-6-7-8-20-15(19)11-9-12(16)14(18)13(17)10-11/h9-10,16-18H,2-8H2,1H3",NRPKURNSADTHLJ-UHFFFAOYSA-N,?,,"HANSCH,C ET AL. (1995)",3.66
103156,1068-57-1,1068-57-1,[H]N([H])N([H])C(=O)C([H])([H])[H],ACETIC ACID HYDRAZIDE,Monoacetyl hydrazine,acetohydrazide,7716,DTXSID9020900,CC(=O)NN,"InChI=1S/C2H6N2O/c1-2(5)4-3/h3H2,1H3,(H,4,5)",OFLXLNCGODUUOT-UHFFFAOYSA-N,?,,"HANSCH,C ET AL. (1995)",-1.58
103157,1071-83-6,1071-83-6,[H]OC(=O)C([H])([H])N([H])C([H])([H])P(=O)(O[H])O[H],GLYPHOSPHATE,Glyphosate,N-(phosphonomethyl)glycine,7717,DTXSID1024122,OC(=O)CNCP(O)(O)=O,"InChI=1S/C3H8NO5P/c5-3(6)1-4-2-10(7,8)9/h4H,1-2H2,(H,5,6)(H2,7,8,9)",XDDAORKBJWWYJS-UHFFFAOYSA-N,?,,SANGSTER (2006),-3.4
103158,1072-83-9,1072-83-9,[H]C1=C([H])N([H])C(C(=O)C([H])([H])[H])=C1[H],2-ACETYLPYRROLE,2-Acetylpyrrole,1-(1H-pyrrol-2-yl)ethanone,7718,DTXSID0047084,CC(=O)c1ccc[nH]1,"InChI=1S/C6H7NO/c1-5(8)6-3-2-4-7-6/h2-4,7H,1H3",IGJQUJNPMOYEJY-UHFFFAOYSA-N,?,,"HANSCH,C ET AL. (1995)",0.93
103160,1073-72-9,1073-72-9,[H]OC1=C([H])C([H])=C(SC([H])([H])[H])C([H])=C1[H],P-METHIOPHENOL,4-(Methylthio)phenol,4-(methylsulfanyl)phenol,7720,DTXSID3051547,CSc1ccc(O)cc1,"InChI=1S/C7H8OS/c1-9-7-4-2-6(8)3-5-7/h2-5,8H,1H3",QASBCTGZKABPKX-UHFFFAOYSA-N,?,,"HANSCH,C ET AL. (1995)",1.78
103161,1074-17-5,1074-17-5,[H]C1=C([H])C([H])=C(C([H])([H])C([H])([H])C([H])([H])[H])C(C([H])([H])[H])=C1[H],1-METHYL-2-PROPYLBENZENE,1-Methyl-2-propylbenzene,1-Methyl-2-propylbenzene,7721,DTXSID4061466,Cc1ccccc1CCC,"InChI=1S/C10H14/c1-3-6-10-8-5-4-7-9(10)2/h4-5,7-8H,3,6H2,1-2H3",YQZBFMJOASEONC-UHFFFAOYSA-N,?,,"SHERBLOM,PM & EGANHOUSE,RP (1988)",4.5
103162,1074-43-7,1074-43-7,[H]C1=C([H])C(C([H])([H])[H])=C([H])C(C([H])([H])C([H])([H])C([H])([H])[H])=C1[H],1-METHYL-3-PROPYLBENZENE,1-Methyl-3-propylbenzene,1-Methyl-3-propylbenzene,7722,DTXSID4061468,Cc1cccc(CCC)c1,"InChI=1S/C10H14/c1-3-5-10-7-4-6-9(2)8-10/h4,6-8H,3,5H2,1-2H3",QUEBYVKXYIKVSO-UHFFFAOYSA-N,?,,"SHERBLOM,PM & EGANHOUSE,RP (1988)",4.67
103164,1075-49-6,1075-49-6,[H]OC(=O)C1=C([H])C([H])=C(C([H])=C([H])[H])C([H])=C1[H],"BENZOIC ACID, 4-ETHENYL-",p-Vinylbenzoic acid,4-ETHENYLBENZOIC ACID,7724,DTXSID70148069,C=Cc1ccc(cc1)C(O)=O,"InChI=1S/C9H8O2/c1-2-7-3-5-8(6-4-7)9(10)11/h2-6H,1H2,(H,10,11)",IRQWEODKXLDORP-UHFFFAOYSA-N,?,,SANGSTER (1993),2.18
103165,1076-22-8,1076-22-8,[H]C1=NC2=C(C(=O)N([H])C(=O)N2C([H])([H])[H])N1[H],3-METHYLXANTHINE,3-Methylxanthine,"3-methyl-7H-purine-2,6-dione",7725,DTXSID90148107,CN1c2[n]c[nH]c2C(=O)NC1=O,"InChI=1S/C6H6N4O2/c1-10-4-3(7-2-8-4)5(11)9-6(10)12/h2H,1H3,(H,7,8)(H,9,11,12)",GMSNIKWWOQHZGF-UHFFFAOYSA-N,?,,"GASPARI,F & BONATI,M (1987)",-0.5
103166,1077-05-0,1077-05-0,[H]C1=C([H])C([H])=C(OP2OC([H])([H])C([H])([H])O2)C([H])=C1[H],"2-Phenoxy-1,3,2-dioxaphospholane","2-Phenoxy-1,3,2-dioxaphospholane",C8H9O3P,7726,DTXSID50286291,C1COP(Oc2ccccc2)O1,"InChI=1S/C8H9O3P/c1-2-4-8(5-3-1)11-12-9-6-7-10-12/h1-5H,6-7H2",NGBJGNHDKWOIHH-UHFFFAOYSA-N,?,,"HANSCH,C ET AL. (1995)",1.42
103168,1077-74-3,1077-74-3,[O-][N+]1=CC=C(Cl)C2=CC=C(Cl)C=C21,"QUINOLINE, 4,7-DICHLORO-, 1-OXIDE","4,7-dichloroquinoline 1-oxide",C9H5Cl2NO,7728,DTXSID70299585,[O-][n+]1ccc(Cl)c2ccc(Cl)cc12,InChI=1S/C9H5Cl2NO/c10-6-1-2-7-8(11)3-4-12(13)9(7)5-6/h1-5H,VHGJNAHFEWJQKX-UHFFFAOYSA-N,?,,"GO,ML & NGIAM,TL (1988)",1.85
103169,1078-71-3,1078-71-3,[H]C1=C([H])C([H])=C(C([H])([H])C([H])([H])C([H])([H])C([H])([H])C([H])([H])C([H])([H])C([H])([H])[H])C([H])=C1[H],1-PHENYLHEPTANE,Heptylbenzene,Heptylbenzene,7729,DTXSID3061477,CCCCCCCc1ccccc1,"InChI=1S/C13H20/c1-2-3-4-5-7-10-13-11-8-6-9-12-13/h6,8-9,11-12H,2-5,7,10H2,1H3",LBNXAWYDQUGHGX-UHFFFAOYSA-N,?,,"RITTER,S ET AL. (1995)",5.37
103170,1080-06-4,1080-06-4,[H]OC1=C([H])C([H])=C(C([H])([H])C([H])(C(=O)OC([H])([H])[H])N([H])[H])C([H])=C1[H],"L-TYROSINE, METHYL ESTER",Tyrosine methyl ester,methyl (2S)-2-amino-3-(4-hydroxyphenyl)propanoate,7730,DTXSID40148354,COC(=O)C(N)Cc1ccc(O)cc1,"InChI=1S/C10H13NO3/c1-14-10(13)9(11)6-7-2-4-8(12)5-3-7/h2-5,9,12H,6,11H2,1H3",MWZPENIJLUWBSY-UHFFFAOYSA-N,?,,"HUANG,CH ET AL. (1985)",0.29