ChemID,source_casrn,CAS,SMILES,NAME,preferred_name,iupac,MPID,dsstox_substance_id,Canonical_QSARr,InChI_Code_QSARr,InChI Key_QSARr,Salt_Solvent,Salt_Solvent_ID,Kow Reference,LogP
102167,536-74-3,536-74-3,[H]C#CC1=C([H])C([H])=C([H])C([H])=C1[H],ETHYNYL BENZENE,Phenylacetylene,Ethynylbenzene,6772,DTXSID1060211,C#Cc1ccccc1,"InChI=1S/C8H6/c1-2-8-6-4-3-5-7-8/h1,3-7H",UEXCJVNBTNXOEH-UHFFFAOYSA-N,?,,"HANSCH,C ET AL. (1995)",2.53
102169,536-78-7,536-78-7,[H]C1=NC([H])=C(C([H])([H])C([H])([H])[H])C([H])=C1[H],3-ETHYLPYRIDINE,3-Ethylpyridine,3-ETHYLPYRIDINE,6774,DTXSID6060212,CCc1c[n]ccc1,"InChI=1S/C7H9N/c1-2-7-4-3-5-8-6-7/h3-6H,2H2,1H3",MFEIKQPHQINPRI-UHFFFAOYSA-N,?,,"HANSCH,C ET AL. (1995)",1.66
102170,536-80-1,536-80-1,[H]C1=C([H])C([H])=C(I=O)C([H])=C1[H],"Benzene, iodosyl-","Benzene, iodosyl-",Iodosylbenzene,6775,DTXSID1060213,O=Ic1ccccc1,InChI=1S/C6H5IO/c8-7-6-4-2-1-3-5-6/h1-5H,JYJVVHFRSFVEJM-UHFFFAOYSA-N,?,,"HANSCH,C ET AL. (1995)",-1.61
102171,536-90-3,536-90-3,[H]C1=C([H])C(OC([H])([H])[H])=C([H])C(N([H])[H])=C1[H],M-METHOXYANILINE,3-Methoxyaniline,3-methoxyaniline,6776,DTXSID8024529,COc1cccc(N)c1,"InChI=1S/C7H9NO/c1-9-7-4-2-3-6(8)5-7/h2-5H,8H2,1H3",NCBZRJODKRCREW-UHFFFAOYSA-N,?,,"HANSCH,C ET AL. (1995)",0.93
102173,537-47-3,537-47-3,[H]C1=C([H])C([H])=C(N([H])C(=O)N([H])N([H])[H])C([H])=C1[H],"HYDRAZINECARBOXAMIDE, N-PHENYL-",4-Phenylsemicarbazide,3-amino-1-phenylurea,6778,DTXSID80201957,NNC(=O)Nc1ccccc1,"InChI=1S/C7H9N3O/c8-10-7(11)9-6-4-2-1-3-5-6/h1-5H,8H2,(H2,9,10,11)",MOCKWYUCPREFCZ-UHFFFAOYSA-N,?,,"KRAMER,CR & BECK,L (1981)",0.16
102174,537-55-3,537-55-3,[H]OC(=O)C([H])(N([H])C(=O)C([H])([H])[H])C([H])([H])C1=C([H])C([H])=C(O[H])C([H])=C1[H],N-ACETYL-L-TYROSINE,N-Acetyl-L-tyrosine,N-acetyl-L-tyrosine,6779,DTXSID7046045,CC(=O)NC(Cc1ccc(O)cc1)C(O)=O,"InChI=1S/C11H13NO4/c1-7(13)12-10(11(15)16)6-8-2-4-9(14)5-3-8/h2-5,10,14H,6H2,1H3,(H,12,13)(H,15,16)",CAHKINHBCWCHCF-UHFFFAOYSA-N,?,,"HUANG,CH ET AL. (1985)",1.32
102175,537-91-7,537-91-7,[H]C1=C([H])C([N+](=O)[O-])=C([H])C(SSC2=C([H])C([H])=C([H])C([N+](=O)[O-])=C2[H])=C1[H],"DISULFIDE, BIS(3-NITROPHENYL)","Disulfide, bis(3-nitrophenyl)",N-hydroxy-3-[3-(hydroxy-oxidoazaniumyl)phenyl]disulfanylbenzeneamine oxide,6780,DTXSID1060219,[O-][N+](=O)c1cc(ccc1)SSc1cc(ccc1)[N+]([O-])=O,InChI=1S/C12H8N2O4S2/c15-13(16)9-3-1-5-11(7-9)19-20-12-6-2-4-10(8-12)14(17)18/h1-8H,ODOFDWDUSSFUMN-UHFFFAOYSA-N,?,,"HANSCH,C ET AL. (1995)",4.06
102177,538-32-9,538-32-9,[H]C1=C([H])C([H])=C(C([H])([H])N([H])C(=O)N([H])[H])C([H])=C1[H],BENZYLUREA,Benzylurea,Phenylmethylurea,6782,DTXSID10202078,NC(=O)NCc1ccccc1,"InChI=1S/C8H10N2O/c9-8(11)10-6-7-4-2-1-3-5-7/h1-5H,6H2,(H3,9,10,11)",RJNJWHFSKNJCTB-UHFFFAOYSA-N,?,,"HANSCH,C ET AL. (1995)",0.73
102178,538-43-2,NOCAS_870597,[H]OC([H])([H])C([H])(O[H])C([H])([H])OC1=C([H])C([H])=C([H])C([H])=C1[H],PHENYL GLYCEROL,,,6783,DTXSID90870597,OCC(O)COc1ccccc1,"InChI=1S/C9H12O3/c10-6-8(11)7-12-9-4-2-1-3-5-9/h1-5,8,10-11H,6-7H2",FNQIYTUXOKTMDM-UHFFFAOYSA-N,?,,"HANSCH,C ET AL. (1995)",0.7
102179,538-51-2,NOCAS_870599,[H]C1=C([H])C([H])=C(/N=C(\[H])C2=C([H])C([H])=C([H])C([H])=C2[H])C([H])=C1[H],BENZALANILINE,,,6784,DTXSID10870599,C(=Nc1ccccc1)c1ccccc1,InChI=1S/C13H11N/c1-3-7-12(8-4-1)11-14-13-9-5-2-6-10-13/h1-11H/b14-11+,UVEWQKMPXAHFST-SDNWHVSQSA-N,?,,"HANSCH,C ET AL. (1995)",2.82
102181,538-79-4,NOCAS_864600,[H]C1=NC([H])=C(/C([H])=C(\[H])C([H])([H])C([H])([H])N([H])C([H])([H])[H])C([H])=C1[H],"3-BUTEN-1-AMINE,N-METHYL-4-(3-PYRIDINYL)",,,6786,DTXSID60864600,CNCCC=Cc1c[n]ccc1,"InChI=1S/C10H14N2/c1-11-7-3-2-5-10-6-4-8-12-9-10/h2,4-6,8-9,11H,3,7H2,1H3/b5-2+",JUOSGGQXEBBCJB-GORDUTHDSA-N,?,,BIOBYTE STARLIST (2009),1.13
102182,538-86-3,538-86-3,[H]C1=C([H])C([H])=C(C([H])([H])OC([H])([H])[H])C([H])=C1[H],BENZYL METHYL ETHER,Benzyl methyl ether,METHOXYMETHYLBENZENE,6787,DTXSID5060227,COCc1ccccc1,"InChI=1S/C8H10O/c1-9-7-8-5-3-2-4-6-8/h2-6H,7H2,1H3",GQKZBCPTCWJTAS-UHFFFAOYSA-N,?,,"HANSCH,C ET AL. (1995)",1.92
102184,539-03-7,539-03-7,[H]C1=C([H])C(N([H])C(=O)C([H])([H])[H])=C([H])C([H])=C1Cl,P-CHLOROACETANILIDE,4-Chloroacetanilide,N-(4-Chlorophenyl)acetamide,6788,DTXSID0060228,CC(=O)Nc1ccc(Cl)cc1,"InChI=1S/C8H8ClNO/c1-6(11)10-8-4-2-7(9)3-5-8/h2-5H,1H3,(H,10,11)",GGUOCFNAWIODMF-UHFFFAOYSA-N,?,,SANGSTER (1994),2.09
102186,539-30-0,539-30-0,[H]C1=C([H])C([H])=C(C([H])([H])OC([H])([H])C([H])([H])[H])C([H])=C1[H],BENZYL ETHYL ETHER,Benzyl ethyl ether,ethoxymethylbenzene,6790,DTXSID4060230,CCOCc1ccccc1,"InChI=1S/C9H12O/c1-2-10-8-9-6-4-3-5-7-9/h3-7H,2,8H2,1H3",AXPZDYVDTMMLNB-UHFFFAOYSA-N,?,,SANGSTER (1993),2.16
102187,540-36-3,540-36-3,[H]C1=C([H])C(F)=C([H])C([H])=C1F,P-DIFLUOROBENZENE,"1,4-Difluorobenzene","1,4-Difluorobenzene",6791,DTXSID1075432,Fc1ccc(F)cc1,InChI=1S/C6H4F2/c7-5-1-2-6(8)4-3-5/h1-4H,QUGUFLJIAFISSW-UHFFFAOYSA-N,?,,"DUNN,WJ ET AL. (1983)",2.13
102188,540-37-4,540-37-4,[H]C1=C([H])C(N([H])[H])=C([H])C([H])=C1I,"BENZENAMINE, 4-IODO-","Benzenamine, 4-iodo-",4-Iodoaniline,6792,DTXSID9060239,Nc1ccc(I)cc1,"InChI=1S/C6H6IN/c7-5-1-3-6(8)4-2-5/h1-4H,8H2",VLVCDUSVTXIWGW-UHFFFAOYSA-N,?,,"HANSCH,C ET AL. (1995)",2.34
102190,540-51-2,540-51-2,[H]OC([H])([H])C([H])([H])Br,2-BROMOETHANOL,2-Bromo-1-ethanol,2-bromoethanol,6794,DTXSID8020200,OCCBr,"InChI=1S/C2H5BrO/c3-1-2-4/h4H,1-2H2",LDLCZOVUSADOIV-UHFFFAOYSA-N,?,,"HANSCH,C ET AL. (1995)",0.23
102191,540-54-5,540-54-5,[H]C([H])([H])C([H])([H])C([H])([H])Cl,1-CHLOROPROPANE,1-Chloropropane,1-chloropropane,6795,DTXSID3051462,CCCCl,"InChI=1S/C3H7Cl/c1-2-3-4/h2-3H2,1H3",SNMVRZFUUCLYTO-UHFFFAOYSA-N,?,,"HANSCH,C ET AL. (1995)",2.04
102193,540-61-4,540-61-4,[H]N([H])C([H])([H])C#N,AMINOACETONITRILE,Aminoacetonitrile,2-Aminoacetonitrile,6796,DTXSID90202314,NCC#N,"InChI=1S/C2H4N2/c3-1-2-4/h1,3H2",DFNYGALUNNFWKJ-UHFFFAOYSA-N,?,,"HANSCH,C ET AL. (1995)",-1.37
102195,540-97-6,540-97-6,[H]C([H])([H])[Si]1(C([H])([H])[H])O[Si](C([H])([H])[H])(C([H])([H])[H])O[Si](C([H])([H])[H])(C([H])([H])[H])O[Si](C([H])([H])[H])(C([H])([H])[H])O[Si](C([H])([H])[H])(C([H])([H])[H])O[Si](C([H])([H])[H])(C([H])([H])[H])O1,DODECAMETHYLCYCLOHEXASILOXANE,Dodecamethylcyclohexasiloxane,dodecamethylcyclohexasiloxane,6798,DTXSID6027183,C[Si]1(C)O[Si](C)(C)O[Si](C)(C)O[Si](C)(C)O[Si](C)(C)O[Si](C)(C)O1,"InChI=1S/C12H36O6Si6/c1-19(2)13-20(3,4)15-22(7,8)17-24(11,12)18-23(9,10)16-21(5,6)14-19/h1-12H3",IUMSDRXLFWAGNT-UHFFFAOYSA-N,?,,SEHSC (2009),9.06
102196,541-02-6,541-02-6,[H]C([H])([H])[Si]1(C([H])([H])[H])O[Si](C([H])([H])[H])(C([H])([H])[H])O[Si](C([H])([H])[H])(C([H])([H])[H])O[Si](C([H])([H])[H])(C([H])([H])[H])O[Si](C([H])([H])[H])(C([H])([H])[H])O1,DECAMETHYLCYCLOPENTASILOXANE,Decamethylcyclopentasiloxane,"2,2,4,4,6,6,8,8,10,10-decamethyl-1,3,5,7,9,2,4,6,8,10-pentoxapentasilecane",6799,DTXSID1027184,C[Si]1(C)O[Si](C)(C)O[Si](C)(C)O[Si](C)(C)O[Si](C)(C)O1,"InChI=1S/C10H30O5Si5/c1-16(2)11-17(3,4)13-19(7,8)15-20(9,10)14-18(5,6)12-16/h1-10H3",XMSXQFUHVRWGNA-UHFFFAOYSA-N,?,,SEHSC (2009),8.03
102197,541-35-5,541-35-5,[H]N([H])C(=O)C([H])([H])C([H])([H])C([H])([H])[H],BUTYRAMIDE,Butanamide,Butanamide,6800,DTXSID8060248,CCCC(N)=O,"InChI=1S/C4H9NO/c1-2-3-4(5)6/h2-3H2,1H3,(H2,5,6)",DNSISZSEWVHGLH-UHFFFAOYSA-N,?,,"HANSCH,C ET AL. (1995)",-0.21
102201,541-73-1,541-73-1,[H]C1=C([H])C(Cl)=C([H])C(Cl)=C1[H],3-DICHLOROBENZENE,"1,3-Dichlorobenzene","1,3-dichlorobenzene",6802,DTXSID6022056,Clc1cc(Cl)ccc1,InChI=1S/C6H4Cl2/c7-5-2-1-3-6(8)4-5/h1-4H,ZPQOPVIELGIULI-UHFFFAOYSA-N,?,,"HANSCH,C ET AL. (1995)",3.53
102202,541-79-7,541-79-7,[H]OC([H])(N([H])C(=O)OC([H])([H])C([H])([H])[H])C(Cl)(Cl)Cl,"CARBAMIC ACID, (2,2,2-TRICHLORO-1-HYDROXYETHYL)-",Carbocloral,"ethyl (2,2,2-trichloro-1-hydroxyethyl)carbamate",6803,DTXSID9046233,CCOC(=O)NC(O)C(Cl)(Cl)Cl,"InChI=1S/C5H8Cl3NO3/c1-2-12-4(11)9-3(10)5(6,7)8/h3,10H,2H2,1H3,(H,9,11)",ITMSAWKLJVGBIT-UHFFFAOYSA-N,?,,"HANSCH,C ET AL. (1995)",1.84
102203,542-28-9,542-28-9,[H]C1([H])OC(=O)C([H])([H])C([H])([H])C1([H])[H],D-VALEROLACTONE,Tetrahydro-2H-pyran-2-one,tetrahydro-2H-pyran-2-one,6804,DTXSID6044438,O=C1CCCCO1,InChI=1S/C5H8O2/c6-5-3-1-2-4-7-5/h1-4H2,OZJPLYNZGCXSJM-UHFFFAOYSA-N,?,,"HANSCH,C ET AL. (1995)",-0.35
102205,542-75-6|10061-01-5|10061-02-6,542-75-6|10061-01-5|10061-02-6,[H]/C(Cl)=C(\[H])C([H])([H])Cl,"1,3-DICHLOROPROPENE (isomer mix), 1,3-DICHLOROPROPENE, (Z), 1,3-DICHLOROPROPENE (TRANS)","1,3-Dichloropropene","1,3-dichloroprop-1-ene",6806|9653|9654,DTXSID1022057|DTXSID1032305|DTXSID2042480,ClC=CCCl,"InChI=1S/C3H4Cl2/c4-2-1-3-5/h1-2H,3H2/b2-1-",UOORRWUZONOOLO-UPHRSURJSA-N,?,,"TOMLIN,C (1997);isomer avg",2.04
102206,542-76-7,542-76-7,[H]C([H])(Cl)C([H])([H])C#N,3-CHLOROPROPIONITRILE,3-Chloropropionitrile,3-chloropropanenitrile,6807,DTXSID4030336,N#CCCCl,InChI=1S/C3H4ClN/c4-2-1-3-5/h1-2H2,GNHMRTZZNHZDDM-UHFFFAOYSA-N,?,,"TANII,H & HASHIMOTO,K (1984)",0.18
102207,542-85-8,542-85-8,[H]C([H])([H])C([H])([H])N=C=S,ETHYL ISOTHIOCYANATE,"Ethane, isothiocyanato-",Isothiocyanatoethane,6808,DTXSID2060258,CCN=C=S,"InChI=1S/C3H5NS/c1-2-4-3-5/h2H2,1H3",HBNYJWAFDZLWRS-UHFFFAOYSA-N,?,,"HANSCH,C ET AL. (1995)",1.47
102209,543-59-9,543-59-9,[H]C([H])([H])C([H])([H])C([H])([H])C([H])([H])C([H])([H])Cl,1-CHLOROPENTANE,,,6810,DTXSID40870603,CCCCCCl,"InChI=1S/C5H11Cl/c1-2-3-4-5-6/h2-5H2,1H3",SQCZQTSHSZLZIQ-UHFFFAOYSA-N,?,,"SUZUKI,T (1991)",2.73
102210,543-87-3,543-87-3,[H]C([H])([H])C([H])(C([H])([H])[H])C([H])([H])C([H])([H])O[N+](=O)[O-],"1-BUTANOL, 3-METHYL-, NITRATE",Isoamyl nitrate,3-Methylbutyl nitrate,6811,DTXSID70110029,CC(C)CCO[N+]([O-])=O,"InChI=1S/C5H11NO3/c1-5(2)3-4-9-6(7)8/h5H,3-4H2,1-2H3",NTHGIYFSMNNHSC-UHFFFAOYSA-N,?,,"HANSCH,C ET AL. (1995)",2.84
102211,544-01-4,544-01-4,[H]C([H])([H])C([H])(C([H])([H])[H])C([H])([H])C([H])([H])OC([H])([H])C([H])([H])C([H])(C([H])([H])[H])C([H])([H])[H],DIISOPENTYL ETHER,Isoamyl ether,bis(3-methylbutyl) ether,6812,DTXSID8052198,CC(C)CCOCCC(C)C,"InChI=1S/C10H22O/c1-9(2)5-7-11-8-6-10(3)4/h9-10H,5-8H2,1-4H3",AQZGPSLYZOOYQP-UHFFFAOYSA-N,?,,CHEMICALS INSPECTION AND TESTING INSTITU (1992),4.25
102213,544-25-2,544-25-2,[H]C1=C([H])C([H])=C([H])C([H])([H])C([H])=C1[H],CYCLOHEPTATRIENE,"1,3,5-Cycloheptatriene","cyclohepta-1,3,5-triene",6814,DTXSID5073909,C1C=CC=CC=C1,"InChI=1S/C7H8/c1-2-4-6-7-5-3-1/h1-6H,7H2",CHVJITGCYZJHLR-UHFFFAOYSA-N,?,,"HANSCH,C ET AL. (1995)",2.63
102214,544-63-8,544-63-8,[H]OC(=O)C([H])([H])C([H])([H])C([H])([H])C([H])([H])C([H])([H])C([H])([H])C([H])([H])C([H])([H])C([H])([H])C([H])([H])C([H])([H])C([H])([H])C([H])([H])[H],TETRADECANOIC ACID,Tetradecanoic acid,tetradecanoic acid,6815,DTXSID6021666,CCCCCCCCCCCCCC(O)=O,"InChI=1S/C14H28O2/c1-2-3-4-5-6-7-8-9-10-11-12-13-14(15)16/h2-13H2,1H3,(H,15,16)",TUNFSRHWOTWDNC-UHFFFAOYSA-N,?,,SANGSTER (1993),6.11
102215,545-06-2,545-06-2,N#CC(Cl)(Cl)Cl,TRICHLOROACETONITRILE,Trichloroacetonitrile,trichloroacetonitrile,6816,DTXSID0021672,N#CC(Cl)(Cl)Cl,"InChI=1S/C2Cl3N/c3-2(4,5)1-6",DRUIESSIVFYOMK-UHFFFAOYSA-N,?,,"HANSCH,C ET AL. (1995)",2.09
102217,545-27-7,545-27-7,[H]OC1([H])C([H])([H])C([H])(OC2([H])C([H])([H])C([H])([H])C3(C([H])([H])[H])C([H])(C([H])([H])C([H])([H])C4([H])C3([H])C([H])([H])C([H])([H])C3(C([H])([H])[H])C([H])(C5=C([H])C(=O)OC5([H])[H])C([H])(O[H])C([H])([H])C43O[H])C2([H])[H])OC([H])(C([H])([H])[H])C1([H])O[H],"CARD-20(22)-ENOLIDE, 3-[(2,6-DIDEOXY-BETA-D-RIBO",Gitoroside,"4-[(3S,5R,8R,9S,10S,13R,14S,16S,17R)-3-[(2R,4S,5S,6R)-4,5-dihydroxy-6-methyloxan-2-yl]oxy-14,16-dihydroxy-10,13-dimethyl-1,2,3,4,5,6,7,8,9,11,12,15,16,17-tetradecahydrocyclopenta[a]phenanthren-17-yl]-5H-furan-2-one",6818,DTXSID20202903,CC1OC(CC(O)C1O)OC1CCC2(C)C3CCC4(C)C(C(O)CC4(O)C3CCC2C1)C1COC(=O)C=1,"InChI=1S/C29H44O8/c1-15-26(33)21(30)12-24(36-15)37-18-6-8-27(2)17(11-18)4-5-20-19(27)7-9-28(3)25(16-10-23(32)35-14-16)22(31)13-29(20,28)34/h10,15,17-22,24-26,30-31,33-34H,4-9,11-14H2,1-3H3",IQOYEMCASBGLJD-UHFFFAOYSA-N,?,,SANGSTER (1993),1.77
102218,545-55-1,545-55-1,[H]C1([H])N(P(=O)(N2C([H])([H])C2([H])[H])N2C([H])([H])C2([H])[H])C1([H])[H],TEPA,Tri(aziridin-1-yl)phosphine oxide,"1,1',1''-phosphoryltriaziridine",6819,DTXSID4052716,O=P(N1CC1)(N1CC1)N1CC1,"InChI=1S/C6H12N3OP/c10-11(7-1-2-7,8-3-4-8)9-5-6-9/h1-6H2",FYAMXEPQQLNQDM-UHFFFAOYSA-N,?,,"SOSNOVSKY,G ET AL. (1985)",-0.62
102219,545-93-7,545-93-7,[H]C([H])=C(Br)C([H])([H])C1(C([H])(C([H])([H])[H])C([H])([H])[H])C(=O)N([H])C(=O)N([H])C1=O,"BARBITURIC ACID,5-IPR,5(2BR ALLYL)",Propallylonal,"5-(2-bromoprop-2-enyl)-5-propan-2-yl-1,3-diazinane-2,4,6-trione",6820,DTXSID00202906,CC(C)C1(CC(=C)Br)C(=O)NC(=O)NC1=O,"InChI=1S/C10H13BrN2O3/c1-5(2)10(4-6(3)11)7(14)12-9(16)13-8(10)15/h5H,3-4H2,1-2H3,(H2,12,13,14,15,16)",KTGWBBOJAGDSHN-UHFFFAOYSA-N,?,,"HANSCH,C ET AL. (1995)",1.47
102221,546-88-3,546-88-3,[H]ON([H])C(=O)C([H])([H])[H],"ACETAMIDE, N-HYDROXY-",Acetohydroxamic acid,N-hydroxyacetamide,6822,DTXSID7022546,CC(=O)NO,"InChI=1S/C2H5NO2/c1-2(4)3-5/h5H,1H3,(H,3,4)",RRUDCFGSUDOHDG-UHFFFAOYSA-N,?,,"HANSCH,C ET AL. (1995)",-1.59
102222,547-52-4,NOCAS_871756,[H]C1=C([H])C(S(=O)(=O)N([H])C2=C([H])C([H])=C(S(=O)(=O)N([H])[H])C([H])=C2[H])=C([H])C([H])=C1N([H])[H],N1-(4-SO2NH2-PH)SULFANILAMIDE,,,6823,DTXSID40871756,NS(=O)(=O)c1ccc(cc1)NS(=O)(=O)c1ccc(N)cc1,"InChI=1S/C12H13N3O4S2/c13-9-1-5-12(6-2-9)21(18,19)15-10-3-7-11(8-4-10)20(14,16)17/h1-8,15H,13H2,(H2,14,16,17)",GCQZFVAHUZIDRP-UHFFFAOYSA-N,?,,"HANSCH,C ET AL. (1995)",0.35
102223,547-75-1,NOCAS_862167,[H]OC(=O)C([H])([H])C([H])([H])C([H])(C([H])([H])[H])C1([H])C([H])([H])C([H])([H])C2([H])C3([H])C([H])(O[H])C([H])(O[H])C4([H])C([H])([H])C([H])(O[H])C([H])([H])C([H])([H])C4(C([H])([H])[H])C3([H])C([H])([H])C([H])([H])C12C([H])([H])[H],HYOCHOLIC ACID,omega-muricholic acid,C24H40O5,6824,DTXSID20862167,CC(CCC(O)=O)C1CCC2C3C(CCC21C)C1(C)CCC(O)CC1C(O)C3O,"InChI=1S/C24H40O5/c1-13(4-7-19(26)27)15-5-6-16-20-17(9-11-23(15,16)2)24(3)10-8-14(25)12-18(24)21(28)22(20)29/h13-18,20-22,25,28-29H,4-12H2,1-3H3,(H,26,27)",DKPMWHFRUGMUKF-UHFFFAOYSA-N,?,,"RODA,A ET AL. (1990)",2.8
102225,548-73-2,548-73-2,[H]C1=C([H])C2=C(C([H])=C1[H])N(C1=C([H])C([H])([H])N(C([H])([H])C([H])([H])C([H])([H])C(=O)C3=C([H])C([H])=C(F)C([H])=C3[H])C([H])([H])C1([H])[H])C(=O)N2[H],DROPERIDOL,Droperidol,"1-{1-[4-(4-fluorophenyl)-4-oxobutyl]-1,2,3,6-tetrahydropyridin-4-yl}-1,3-dihydro-2H-benzimidazol-2-one",6826,DTXSID6022973,O=C1Nc2ccccc2N1C1CCN(CC=1)CCCC(=O)c1ccc(F)cc1,"InChI=1S/C22H22FN3O2/c23-17-9-7-16(8-10-17)21(27)6-3-13-25-14-11-18(12-15-25)26-20-5-2-1-4-19(20)24-22(26)28/h1-2,4-5,7-11H,3,6,12-15H2,(H,24,28)",RMEDXOLNCUSCGS-UHFFFAOYSA-N,?,,SANGSTER (1993),3.5
102226,550-44-7,550-44-7,[H]C1=C([H])C([H])=C2C(=O)N(C([H])([H])[H])C(=O)C2=C1[H],"PHTHALIMIDE,N-METHYL",N-Methylphthalimide,"2-methyl-1H-isoindole-1,3(2H)-dione",6827,DTXSID5027198,CN1C(=O)c2ccccc2C1=O,"InChI=1S/C9H7NO2/c1-10-8(11)6-4-2-3-5-7(6)9(10)12/h2-5H,1H3",ZXLYYQUMYFHCLQ-UHFFFAOYSA-N,?,,"HANSCH,C ET AL. (1995)",1.31
102227,551-06-4,551-06-4,[H]C1=C([H])C(N=C=S)=C2C([H])=C([H])C([H])=C([H])C2=C1[H],1-ISOTHIOCYANONAPHTHALENE,alpha-Naphylisothiocyanate,1-isothiocyanatonaphthalene,6828,DTXSID8025703,S=C=Nc1cccc2ccccc21,InChI=1S/C11H7NS/c13-8-12-11-7-3-5-9-4-1-2-6-10(9)11/h1-7H,JBDOSUUXMYMWQH-UHFFFAOYSA-N,?,,"HANSCH,C ET AL. (1995)",4.34
102229,551-27-9,551-27-9,[H]OC(=O)C1([H])N2C(=O)C([H])(N([H])C(=O)C([H])(OC3=C([H])C([H])=C([H])C([H])=C3[H])C([H])([H])C([H])([H])[H])C2([H])SC1(C([H])([H])[H])C([H])([H])[H],PROPICILLIN,Propicillin,"(2S,5R,6R)-3,3-dimethyl-7-oxo-6-[(2-phenoxybutanoyl)amino]-4-thia-1-azabicyclo[3.2.0]heptane-2-carboxylic acid",6830,DTXSID3046291,CCC(Oc1ccccc1)C(=O)NC1C2SC(C)(C)C(C(O)=O)N2C1=O,"InChI=1S/C18H22N2O5S/c1-4-11(25-10-8-6-5-7-9-10)14(21)19-12-15(22)20-13(17(23)24)18(2,3)26-16(12)20/h5-9,11-13,16H,4H2,1-3H3,(H,19,21)(H,23,24)",HOCWPKXKMNXINF-UHFFFAOYSA-N,?,,"HANSCH,C ET AL. (1995)",2.65
102230,551-92-8,551-92-8,[H]C1=C([N+](=O)[O-])N(C([H])([H])[H])C(C([H])([H])[H])=N1,"1,2-DIMETHYL-5-NITRO-1H-IMIDAZOLE","1,2-Dimethyl-5-nitroimidazole","1,2-dimethyl-5-nitro-1H-imidazole",6831,DTXSID5020497,Cc1[n]cc([n]1C)[N+]([O-])=O,"InChI=1S/C5H7N3O2/c1-4-6-3-5(7(4)2)8(9)10/h3H,1-2H3",IBXPYPUJPLLOIN-UHFFFAOYSA-N,?,,"KOSANOVIC,DD ET AL. (1988)",0.31
102231,551-93-9,551-93-9,[H]C1=C([H])C([H])=C(N([H])[H])C(C(=O)C([H])([H])[H])=C1[H],O-AMINOACETOPHENONE,2'-Aminoacetophenone,1-(2-aminophenyl)ethanone,6832,DTXSID4052213,CC(=O)c1ccccc1N,"InChI=1S/C8H9NO/c1-6(10)7-4-2-3-5-8(7)9/h2-5H,9H2,1H3",GTDQGKWDWVUKTI-UHFFFAOYSA-N,?,,"HANSCH,C ET AL. (1995)",1.63
102233,552-32-9,552-32-9,[H]C1=C([H])C([H])=C([N+](=O)[O-])C(N([H])C(=O)C([H])([H])[H])=C1[H],2-NITROACETANILIDE,"Acetamide, N-(2-nitrophenyl)-",N-(2-nitrophenyl)acetamide,6834,DTXSID4060282,CC(=O)Nc1ccccc1[N+]([O-])=O,"InChI=1S/C8H8N2O3/c1-6(11)9-7-4-2-3-5-8(7)10(12)13/h2-5H,1H3,(H,9,11)",BUNFNRVLMKHKIT-UHFFFAOYSA-N,?,,"HANSCH,C ET AL. (1995)",1.0
102235,552-58-9,552-58-9,[H]OC1=C([H])C(O[H])=C2C(=O)C([H])([H])C([H])(C3=C([H])C([H])=C(O[H])C(O[H])=C3[H])OC2=C1[H],ERIODICTYOL,,,6836,DTXSID70877706,Oc1cc2OC(CC(=O)c2c(O)c1)c1cc(O)c(O)cc1,"InChI=1S/C15H12O6/c16-8-4-11(19)15-12(20)6-13(21-14(15)5-8)7-1-2-9(17)10(18)3-7/h1-5,13,16-19H,6H2",SBHXYTNGIZCORC-UHFFFAOYSA-N,?,,"PERRISSOUD,D & TESTA,B (1986)",2.02
102236,552-62-5,552-62-5,[H]C1=NC2=C(C(=O)N([H])C(=O)N2[H])N1C([H])([H])[H],7-METHYLXANTHINE,7-Methylxanthine,"7-methyl-3H-purine-2,6-dione",6837,DTXSID60203696,C[n]1c[n]c2NC(=O)NC(=O)c12,"InChI=1S/C6H6N4O2/c1-10-2-7-4-3(10)5(11)9-6(12)8-4/h2H,1H3,(H2,8,9,11,12)",PFWLFWPASULGAN-UHFFFAOYSA-N,?,,"GASPARI,F & BONATI,M (1987)",-0.89
102238,552-86-3,NOCAS_862181,[H]OC([H])(C(=O)C1=C([H])C([H])=C([H])O1)C1=C([H])C([H])=C([H])O1,"FURAN, 2-CH(OH)CO-FURYL",,,6839,DTXSID60862181,OC(C(=O)c1ccco1)c1ccco1,"InChI=1S/C10H8O4/c11-9(7-3-1-5-13-7)10(12)8-4-2-6-14-8/h1-6,9,11H",MIJRFWVFNKQQDK-UHFFFAOYSA-N,?,,"HANSCH,C ET AL. (1995)",0.54
102239,552-89-6,552-89-6,[H]C(=O)C1=C([H])C([H])=C([H])C([H])=C1[N+](=O)[O-],O-NITROBENZALDEHYDE,2-Nitrobenzaldehyde,2-nitrobenzaldehyde,6840,DTXSID0022060,[O-][N+](=O)c1ccccc1C=O,InChI=1S/C7H5NO3/c9-5-6-3-1-2-4-7(6)8(10)11/h1-5H,CMWKITSNTDAEDT-UHFFFAOYSA-N,?,,"HANSCH,C ET AL. (1995)",1.74
102240,553-03-7,553-03-7,[H]C1=C([H])C([H])=C2C(=C1[H])N([H])C(=O)C([H])([H])C2([H])[H],"2(1H)-QUINOLINONE, 3,4-DIHYDRO-",Hydrocarbostyril,"3,4-dihydro-1H-quinolin-2-one",6841,DTXSID40203816,O=C1CCc2ccccc2N1,"InChI=1S/C9H9NO/c11-9-6-5-7-3-1-2-4-8(7)10-9/h1-4H,5-6H2,(H,10,11)",TZOYXRMEFDYWDQ-UHFFFAOYSA-N,?,,SANGSTER (1993),1.34
102242,553-26-4,553-26-4,[H]C1=NC([H])=C([H])C(C2=C([H])C([H])=NC([H])=C2[H])=C1[H],"4,4'-DIPYRIDYL","4,4'-Bipyridine","4,4'-bipyridine",6843,DTXSID2027200,c1c[n]ccc1-c1cc[n]cc1,InChI=1S/C10H8N2/c1-5-11-6-2-9(1)10-3-7-12-8-4-10/h1-8H,MWVTWFVJZLCBMC-UHFFFAOYSA-N,?,,"DE VOOGT,P ET AL. (1990)",1.28
102243,553-27-5,553-27-5,[H]C1=C([H])C([H])=C(N(C([H])([H])C([H])([H])Cl)C([H])([H])C([H])([H])Cl)C([H])=C1[H],"N,N-DI-B-CHLOROETHYLANILINE",Aniline mustard,"N,N-Bis(2-chloroethyl)aniline",6844,DTXSID30203820,ClCCN(CCCl)c1ccccc1,"InChI=1S/C10H13Cl2N/c11-6-8-13(9-7-12)10-4-2-1-3-5-10/h1-5H,6-9H2",ROSJKFFLIXTTAW-UHFFFAOYSA-N,?,,"HANSCH,C ET AL. (1995)",2.9
102244,553-84-4,553-84-4,[H]C1=C([H])C(C(=O)C([H])([H])C([H])([H])C([H])(C([H])([H])[H])C([H])([H])[H])=C([H])O1,"1-PENTANONE, 1-(3-FURANYL)-4-METHYL-",Perilla ketone,1-furan-3-yl-4-methylpentan-1-one,6845,DTXSID10203828,CC(C)CCC(=O)c1ccoc1,"InChI=1S/C10H14O2/c1-8(2)3-4-10(11)9-5-6-12-7-9/h5-8H,3-4H2,1-2H3",LVHLZMUFIYAEQB-UHFFFAOYSA-N,?,,"HANSCH,C ET AL. (1995)",2.76
102246,553-97-9,553-97-9,[H]C1=C([H])C(=O)C(C([H])([H])[H])=C([H])C1=O,"2-METHYL-1,4-BENZOQUINONE",2-Methyl-p-benzoquinone,"2-methylcyclohexa-2,5-diene-1,4-dione",6847,DTXSID8060290,CC1=CC(=O)C=CC1=O,"InChI=1S/C7H6O2/c1-5-4-6(8)2-3-7(5)9/h2-4H,1H3",VTWDKFNVVLAELH-UHFFFAOYSA-N,?,,"HANSCH,C ET AL. (1995)",0.72
102247,554-00-7,554-00-7,[H]C1=C([H])C(N([H])[H])=C(Cl)C([H])=C1Cl,"2,4-DICHLOROANILINE","2,4-Dichloroaniline","2,4-dichloroaniline",6848,DTXSID1024966,Nc1ccc(Cl)cc1Cl,"InChI=1S/C6H5Cl2N/c7-4-1-2-6(9)5(8)3-4/h1-3H,9H2",KQCMTOWTPBNWDB-UHFFFAOYSA-N,?,,SANGSTER (1994),2.78