ChemID,source_casrn,CAS,SMILES,NAME,preferred_name,iupac,MPID,dsstox_substance_id,Canonical_QSARr,InChI_Code_QSARr,InChI Key_QSARr,Salt_Solvent,Salt_Solvent_ID,Kow Reference,LogP
101029,105-05-5,105-05-5,[H]C1=C([H])C(C([H])([H])C([H])([H])[H])=C([H])C([H])=C1C([H])([H])C([H])([H])[H],P-DIETHYLBENZENE,"1,4-Diethylbenzene","1,4-diethylbenzene",5672,DTXSID4026711,CCc1ccc(CC)cc1,"InChI=1S/C10H14/c1-3-9-5-7-10(4-2)8-6-9/h5-8H,3-4H2,1-2H3",DSNHSQKRULAAEI-UHFFFAOYSA-N,?,,"SHERBLOM,PM & EGANHOUSE,RP (1988)",4.58
101030,105-11-3,105-11-3,[H]C1=C([H])C([H])(N=O)C([H])=C([H])C1([H])N=O,"2,5-CYCLOHEXADIENE-1,4-DIONE, DIOXIME",p-Benzoquinone dioxime,"(1Z,4Z)-N,N'-dihydroxycyclohexa-2,5-diene-1,4-diimine",5673,DTXSID8021222,O=NC1C=CC(C=C1)N=O,InChI=1S/C6H6N2O2/c9-7-5-1-2-6(8-10)4-3-5/h1-6H,FFVVRMLNYSANFV-UHFFFAOYSA-N,?,,"HANSCH,C ET AL. (1995)",1.49
101032,105-34-0,105-34-0,[H]C([H])([H])OC(=O)C([H])([H])C#N,METHYL CYANOACETATE,Methyl cyanoacetate,methyl cyanoacetate,5675,DTXSID8033649,COC(=O)CC#N,"InChI=1S/C4H5NO2/c1-7-4(6)2-3-5/h2H2,1H3",ANGDWNBGPBMQHW-UHFFFAOYSA-N,?,,"HANSCH,C ET AL. (1995)",-0.47
101033,105-36-2,105-36-2,[H]C([H])(Br)C(=O)OC([H])([H])C([H])([H])[H],"BROMOACETIC ACID, ETHYL ESTER",Ethyl bromoacetate,ethyl bromoacetate,5676,DTXSID4020587,CCOC(=O)CBr,"InChI=1S/C4H7BrO2/c1-2-7-4(6)3-5/h2-3H2,1H3",PQJJJMRNHATNKG-UHFFFAOYSA-N,?,,"HANSCH,C ET AL. (1995)",1.12
101034,105-37-3,105-37-3,[H]C([H])([H])C([H])([H])OC(=O)C([H])([H])C([H])([H])[H],ETHYL PROPIONATE,Ethyl propionate,ethyl propanoate,5677,DTXSID1040110,CCC(=O)OCC,"InChI=1S/C5H10O2/c1-3-5(6)7-4-2/h3-4H2,1-2H3",FKRCODPIKNYEAC-UHFFFAOYSA-N,?,,"HANSCH,C ET AL. (1995)",1.21
101036,105-40-8,105-40-8,[H]N(C(=O)OC([H])([H])C([H])([H])[H])C([H])([H])[H],"N-METHYLCARBAMIC ACID, ET ESTER","N-Methylcarbamic acid, ethyl ester",ethyl methylcarbamate,5679,DTXSID2031746,CCOC(=O)NC,"InChI=1S/C4H9NO2/c1-3-7-4(6)5-2/h3H2,1-2H3,(H,5,6)",SURZCVYFPAXNGN-UHFFFAOYSA-N,?,,"HANSCH,C ET AL. (1995)",0.34
101037,105-46-4,105-46-4,[H]C([H])([H])C(=O)OC([H])(C([H])([H])[H])C([H])([H])C([H])([H])[H],S-BUTYLACETATE,Butan-2-yl acetate,butan-2-yl acetate,5680,DTXSID0047612,CCC(C)OC(C)=O,"InChI=1S/C6H12O2/c1-4-5(2)8-6(3)7/h5H,4H2,1-3H3",DCKVNWZUADLDEH-UHFFFAOYSA-N,?,,"HANSCH,C ET AL. (1995)",1.72
101038,105-53-3,105-53-3,[H]C([H])(C(=O)OC([H])([H])C([H])([H])[H])C(=O)OC([H])([H])C([H])([H])[H],DIETHYL MALONATE,Diethyl propanedioate,diethyl propanedioate,5681,DTXSID7021863,CCOC(=O)CC(=O)OCC,"InChI=1S/C7H12O4/c1-3-10-6(8)5-7(9)11-4-2/h3-5H2,1-2H3",IYXGSMUGOJNHAZ-UHFFFAOYSA-N,?,,POMONA (1987),0.96
101040,105-57-7,105-57-7,[H]C([H])([H])C([H])([H])OC([H])(OC([H])([H])C([H])([H])[H])C([H])([H])[H],"1,1-DIETHOXYETHANE",Acetal,"1,1-diethoxyethane",5683,DTXSID6030607,CC(OCC)OCC,"InChI=1S/C6H14O2/c1-4-7-6(3)8-5-2/h6H,4-5H2,1-3H3",DHKHKXVYLBGOIT-UHFFFAOYSA-N,?,,"HANSCH,C ET AL. (1995)",0.84
101041,105-58-8,105-58-8,[H]C([H])([H])C([H])([H])OC(=O)OC([H])([H])C([H])([H])[H],DIETHYL CARBONATE,Diethyl carbonate,diethyl carbonate,5684,DTXSID3025041,CCOC(=O)OCC,"InChI=1S/C5H10O3/c1-3-7-5(6)8-4-2/h3-4H2,1-2H3",OIFBSDVPJOWBCH-UHFFFAOYSA-N,?,,"HANSCH,C ET AL. (1995)",1.21
101042,105-67-9,105-67-9,[H]OC1=C([H])C([H])=C(C([H])([H])[H])C([H])=C1C([H])([H])[H],"2,4-DIMETHYLPHENOL","2,4-Dimethylphenol","2,4-dimethylphenol",5685,DTXSID2021864,Cc1cc(C)c(O)cc1,"InChI=1S/C8H10O/c1-6-3-4-8(9)7(2)5-6/h3-5,9H,1-2H3",KUFFULVDNCHOFZ-UHFFFAOYSA-N,?,,"HANSCH,C ET AL. (1995)",2.3
101044,106-18-3,106-18-3,[H]C([H])([H])C([H])([H])C([H])([H])C([H])([H])OC(=O)C([H])([H])C([H])([H])C([H])([H])C([H])([H])C([H])([H])C([H])([H])C([H])([H])C([H])([H])C([H])([H])C([H])([H])C([H])([H])[H],"Dodecanoic acid, butyl ester",Butyl laurate,Butyl dodecanoate,5687,DTXSID4059336,CCCCCCCCCCCC(=O)OCCCC,"InChI=1S/C16H32O2/c1-3-5-7-8-9-10-11-12-13-14-16(17)18-15-6-4-2/h3-15H2,1-2H3",NDKYEUQMPZIGFN-UHFFFAOYSA-N,?,,"KROP,HB ET AL. (1997)",6.51
101045,106-22-9,106-22-9,[H]OC([H])([H])C([H])([H])C([H])(C([H])([H])[H])C([H])([H])C([H])([H])C([H])=C(C([H])([H])[H])C([H])([H])[H],"3,7-DIMETHYL-6-OCTEN-1-OL",Citronellol,"3,7-dimethyloct-6-en-1-ol",5688,DTXSID3026726,CC(CCO)CCC=C(C)C,"InChI=1S/C10H20O/c1-9(2)5-4-6-10(3)7-8-11/h5,10-11H,4,6-8H2,1-3H3",QMVPMAAFGQKVCJ-UHFFFAOYSA-N,?,,"GRIFFIN,S ET AL. (1999)",3.91
101046,106-24-1|106-25-2,106-24-1|106-25-2,[H]OC([H])([H])/C([H])=C(\C([H])([H])[H])C([H])([H])C([H])([H])C([H])=C(C([H])([H])[H])C([H])([H])[H],"GERANIOL, 2,6-Octadien-1-ol, 3,7-dimethyl-, (Z)-",Geraniol,"(2E)-3,7-dimethylocta-2,6-dien-1-ol",5689|5690,DTXSID8026727|DTXSID3026728,CC(C)=CCCC(C)=CCO,"InChI=1S/C10H18O/c1-9(2)5-4-6-10(3)7-8-11/h5,7,11H,4,6,8H2,1-3H3/b10-7+",GLZPCOQZEFWAFX-JXMROGBWSA-N,?,,"GRIFFIN,S ET AL. (1999)",3.56
101049,106-37-6,106-37-6,[H]C1=C([H])C(Br)=C([H])C([H])=C1Br,"1,4-DIBROMOBENZENE","1,4-Dibromobenzene","1,4-dibromobenzene",5692,DTXSID4024012,Brc1ccc(Br)cc1,InChI=1S/C6H4Br2/c7-5-1-2-6(8)4-3-5/h1-4H,SWJPEBQEEAHIGZ-UHFFFAOYSA-N,?,,"HANSCH,C ET AL. (1995)",3.79
101050,106-38-7,106-38-7,[H]C1=C([H])C(C([H])([H])[H])=C([H])C([H])=C1Br,P-BROMOTOLUENE,4-Bromotoluene,1-bromo-4-methylbenzene,5693,DTXSID7024661,Cc1ccc(Br)cc1,"InChI=1S/C7H7Br/c1-6-2-4-7(8)5-3-6/h2-5H,1H3",ZBTMRBYMKUEVEU-UHFFFAOYSA-N,?,,"DUNN,WJ ET AL. (1983)",3.42
101051,106-39-8,106-39-8,[H]C1=C([H])C(Br)=C([H])C([H])=C1Cl,P-BROMOCHLOROBENZENE,p-Bromoclorobenzene,1-Bromo-4-chlorobenzene,5694,DTXSID4059338,Clc1ccc(Br)cc1,InChI=1S/C6H4BrCl/c7-5-1-3-6(8)4-2-5/h1-4H,NHDODQWIKUYWMW-UHFFFAOYSA-N,?,,"DUNN,WJ ET AL. (1983)",3.54
101053,106-41-2,106-41-2,[H]OC1=C([H])C([H])=C(Br)C([H])=C1[H],P-BROMOPHENOL,4-Bromophenol,4-bromophenol,5696,DTXSID3051543,Oc1ccc(Br)cc1,"InChI=1S/C6H5BrO/c7-5-1-3-6(8)4-2-5/h1-4,8H",GZFGOTFRPZRKDS-UHFFFAOYSA-N,?,,"HANSCH,C ET AL. (1995)",2.59
101054,106-42-3,106-42-3,[H]C1=C([H])C(C([H])([H])[H])=C([H])C([H])=C1C([H])([H])[H],P-XYLENE,p-Xylene,"1,4-dimethylbenzene",5697,DTXSID2021868,Cc1ccc(C)cc1,"InChI=1S/C8H10/c1-7-3-5-8(2)6-4-7/h3-6H,1-2H3",URLKBWYHVLBVBO-UHFFFAOYSA-N,?,,"HANSCH,C ET AL. (1995)",3.15
101055,106-43-4,106-43-4,[H]C1=C([H])C(C([H])([H])[H])=C([H])C([H])=C1Cl,P-CHLOROTOLUENE,4-Chlorotoluene,1-chloro-4-methylbenzene,5698,DTXSID8024814,Cc1ccc(Cl)cc1,"InChI=1S/C7H7Cl/c1-6-2-4-7(8)5-3-6/h2-5H,1H3",NPDACUSDTOMAMK-UHFFFAOYSA-N,?,,"HANSCH,C ET AL. (1995)",3.33
101057,106-46-7,106-46-7,[H]C1=C([H])C(Cl)=C([H])C([H])=C1Cl,"1,4-DICHLOROBENZENE","1,4-Dichlorobenzene","1,4-dichlorobenzene",5700,DTXSID1020431,Clc1ccc(Cl)cc1,InChI=1S/C6H4Cl2/c7-5-1-2-6(8)4-3-5/h1-4H,OCJBOOLMMGQPQU-UHFFFAOYSA-N,?,,"HANSCH,C ET AL. (1995)",3.44
101058,106-47-8,106-47-8,[H]C1=C([H])C(N([H])[H])=C([H])C([H])=C1Cl,4-CHLOROANILINE,4-Chloroaniline,4-chloroaniline,5701,DTXSID9020295,Nc1ccc(Cl)cc1,"InChI=1S/C6H6ClN/c7-5-1-3-6(8)4-2-5/h1-4H,8H2",QSNSCYSYFYORTR-UHFFFAOYSA-N,?,,"HANSCH,C ET AL. (1995)",1.83
101059,106-48-9,106-48-9,[H]OC1=C([H])C([H])=C(Cl)C([H])=C1[H],4-CHLOROPHENOL,4-Chlorophenol,4-chlorophenol,5702,DTXSID1021871,Oc1ccc(Cl)cc1,"InChI=1S/C6H5ClO/c7-5-1-3-6(8)4-2-5/h1-4,8H",WXNZTHHGJRFXKQ-UHFFFAOYSA-N,?,,"HANSCH,C ET AL. (1995)",2.39
101061,106-50-3,106-50-3,[H]C1=C([H])C(N([H])[H])=C([H])C([H])=C1N([H])[H],"1,4-BENZENEDIAMINE","1,4-Benzenediamine","benzene-1,4-diamine",5704,DTXSID9021138,Nc1ccc(N)cc1,"InChI=1S/C6H8N2/c7-5-1-2-6(8)4-3-5/h1-4H,7-8H2",CBCKQZAAMUWICA-UHFFFAOYSA-N,?,,"HANSCH,C ET AL. (1995)",-0.3
101062,106-51-4,106-51-4,[H]C1=C([H])C(=O)C([H])=C([H])C1=O,"2,5-CYCLOHEXADIENE-1,4-DIONE","1,4-Benzoquinone","cyclohexa-2,5-diene-1,4-dione",5705,DTXSID6020145,O=C1C=CC(=O)C=C1,InChI=1S/C6H4O2/c7-5-1-2-6(8)4-3-5/h1-4H,AZQWKYJCGOJGHM-UHFFFAOYSA-N,?,,"HANSCH,C ET AL. (1995)",0.2
101063,106-58-1,106-58-1,[H]C([H])([H])N1C([H])([H])C([H])([H])N(C([H])([H])[H])C([H])([H])C1([H])[H],"PIPERAZINE, 1,4-DIMETHYL-","1,4-Dimethylpiperazine","1,4-dimethylpiperazine",5706,DTXSID8051544,CN1CCN(C)CC1,"InChI=1S/C6H14N2/c1-7-3-5-8(2)6-4-7/h3-6H2,1-2H3",RXYPXQSKLGGKOL-UHFFFAOYSA-N,?,,"HANSCH,C ET AL. (1995)",-0.4
101065,106-63-8,106-63-8,[H]C([H])=C([H])C(=O)OC([H])([H])C([H])(C([H])([H])[H])C([H])([H])[H],ISOBUTYL ACRYLATE,Isobutyl acrylate,2-methylpropyl prop-2-enoate,5708,DTXSID1021873,CC(C)COC(=O)C=C,"InChI=1S/C7H12O2/c1-4-7(8)9-5-6(2)3/h4,6H,1,5H2,2-3H3",CFVWNXQPGQOHRJ-UHFFFAOYSA-N,?,,"HANSCH,C ET AL. (1995)",2.22
101066,106-65-0,106-65-0,[H]C([H])([H])OC(=O)C([H])([H])C([H])([H])C(=O)OC([H])([H])[H],DIMETHYL SUCCINATE,Dimethyl succinate,dimethyl butanedioate,5709,DTXSID5025152,COC(=O)CCC(=O)OC,"InChI=1S/C6H10O4/c1-9-5(7)3-4-6(8)10-2/h3-4H2,1-2H3",MUXOBHXGJLMRAB-UHFFFAOYSA-N,?,,"HANSCH,C ET AL. (1995)",0.35
101067,106-86-5,NOCAS_861725,[H]C([H])=C([H])C1([H])C([H])([H])C([H])([H])C2([H])OC2([H])C1([H])[H],"7-OXABICYCLO 4.1.0 HEPTANE, 3-ETHENYL-",,,5710,DTXSID10861725,C=CC1CC2OC2CC1,"InChI=1S/C8H12O/c1-2-6-3-4-7-8(5-6)9-7/h2,6-8H,1,3-5H2",SLJFKNONPLNAPF-UHFFFAOYSA-N,?,,SANGSTER (1993),2.08
101069,106-89-8,106-89-8,[H]C([H])(Cl)C1([H])OC1([H])[H],"1-CHLORO-2,3-EPOXYPROPANE",Epichlorohydrin,C3H5ClO,5712,DTXSID1020566,ClCC1CO1,"InChI=1S/C3H5ClO/c4-1-3-2-5-3/h3H,1-2H2",BRLQWZUYTZBJKN-UHFFFAOYSA-N,?,,"DENEER,JW ET AL. (1988)",0.45
101070,106-93-4,106-93-4,[H]C([H])(Br)C([H])([H])Br,"1,2-DIBROMOETHANE","1,2-Dibromoethane","1,2-dibromoethane",5713,DTXSID3020415,BrCCBr,InChI=1S/C2H4Br2/c3-1-2-4/h1-2H2,PAAZPARNPHGIKF-UHFFFAOYSA-N,?,,"HANSCH,C ET AL. (1995)",1.96
101071,106-94-5,106-94-5,[H]C([H])([H])C([H])([H])C([H])([H])Br,1-BROMOPROPANE,1-Bromopropane,1-bromopropane,5714,DTXSID6021874,CCCBr,"InChI=1S/C3H7Br/c1-2-3-4/h2-3H2,1H3",CYNYIHKIEHGYOZ-UHFFFAOYSA-N,?,,"HANSCH,C ET AL. (1995)",2.1
101073,106-97-8,106-97-8,[H]C([H])([H])C([H])([H])C([H])([H])C([H])([H])[H],N-BUTANE,Butane,C4H10,5716,DTXSID7024665,CCCC,"InChI=1S/C4H10/c1-3-4-2/h3-4H2,1-2H3",IJDNQMDRQITEOD-UHFFFAOYSA-N,?,,"HANSCH,C ET AL. (1995)",2.89
101074,106-98-9,106-98-9,[H]C([H])=C([H])C([H])([H])C([H])([H])[H],1-BUTENE,1-Butene,but-1-ene,5717,DTXSID1026746,CCC=C,"InChI=1S/C4H8/c1-3-4-2/h3H,1,4H2,2H3",VXNZUUAINFGPBY-UHFFFAOYSA-N,?,,"HANSCH,C ET AL. (1995)",2.4
101075,106-99-0,106-99-0,[H]C([H])=C([H])C([H])=C([H])[H],"1,3-BUTADIENE","1,3-Butadiene","buta-1,3-diene",5718,DTXSID3020203,C=CC=C,"InChI=1S/C4H6/c1-3-4-2/h3-4H,1-2H2",KAKZBPTYRLMSJV-UHFFFAOYSA-N,?,,"HANSCH,C ET AL. (1995)",1.99
101077,107-02-8,107-02-8,[H]C(=O)C([H])=C([H])[H],ACROLEIN,Acrolein,prop-2-enal,5720,DTXSID5020023,C=CC=O,"InChI=1S/C3H4O/c1-2-3-4/h2-3H,1H2",HGINCPLSRVDWNT-UHFFFAOYSA-N,?,,"HANSCH,C ET AL. (1995)",-0.01
101078,107-03-9,107-03-9,[H]SC([H])([H])C([H])([H])C([H])([H])[H],1-PROPANETHIOL,1-Propanethiol,propane-1-thiol,5721,DTXSID5026750,CCCS,"InChI=1S/C3H8S/c1-2-3-4/h4H,2-3H2,1H3",SUVIGLJNEAMWEG-UHFFFAOYSA-N,?,,"HANSCH,C ET AL. (1995)",1.81
101079,107-06-2,107-06-2,[H]C([H])(Cl)C([H])([H])Cl,"1,2-DICHLOROETHANE","1,2-Dichloroethane",C2H4Cl2,5722,DTXSID6020438,ClCCCl,InChI=1S/C2H4Cl2/c3-1-2-4/h1-2H2,WSLDOOZREJYCGB-UHFFFAOYSA-N,?,,"HANSCH,C ET AL. (1995)",1.48
101081,107-10-8,107-10-8,[H]N([H])C([H])([H])C([H])([H])C([H])([H])[H],PROPYLAMINE,Propylamine,propan-1-amine,5724,DTXSID6021878,CCCN,"InChI=1S/C3H9N/c1-2-3-4/h2-4H2,1H3",WGYKZJWCGVVSQN-UHFFFAOYSA-N,?,,"HANSCH,C ET AL. (1995)",0.48
101082,107-11-9,107-11-9,[H]C([H])=C([H])C([H])([H])N([H])[H],ALLYLAMINE,Allylamine,C3H7N,5725,DTXSID8024440,C=CCN,"InChI=1S/C3H7N/c1-2-3-4/h2H,1,3-4H2",VVJKKWFAADXIJK-UHFFFAOYSA-N,?,,"HANSCH,C ET AL. (1995)",0.03
101083,107-12-0,107-12-0,[H]C([H])([H])C([H])([H])C#N,PROPIONITRILE,Propionitrile,propanenitrile,5726,DTXSID1021879,CCC#N,"InChI=1S/C3H5N/c1-2-3-4/h2H2,1H3",FVSKHRXBFJPNKK-UHFFFAOYSA-N,?,,"HANSCH,C ET AL. (1995)",0.16
101085,107-14-2,107-14-2,[H]C([H])(Cl)C#N,CHLOROACETONITRILE,Chloroacetonitrile,chloroacetonitrile,5728,DTXSID7021524,N#CCCl,InChI=1S/C2H2ClN/c3-1-2-4/h1H2,RENMDAKOXSCIGH-UHFFFAOYSA-N,?,,"HANSCH,C ET AL. (1995)",0.45
101086,107-15-3,107-15-3,[H]N([H])C([H])([H])C([H])([H])N([H])[H],"1,2-DIAMINOETHANE",Ethylenediamine,"ethane-1,2-diamine",5729,DTXSID5021881,NCCN,InChI=1S/C2H8N2/c3-1-2-4/h1-4H2,PIICEJLVQHRZGT-UHFFFAOYSA-N,?,,"HANSCH,C ET AL. (1995)",-2.04
101087,107-18-6,107-18-6,[H]OC([H])([H])C([H])=C([H])[H],ALLYL ALCOHOL,Allyl alcohol,prop-2-en-1-ol,5730,DTXSID8020044,C=CCO,"InChI=1S/C3H6O/c1-2-3-4/h2,4H,1,3H2",XXROGKLTLUQVRX-UHFFFAOYSA-N,?,,"HANSCH,C ET AL. (1995)",0.17
101089,107-21-1,107-21-1,[H]OC([H])([H])C([H])([H])O[H],ETHYLENE GLYCOL,Ethylene glycol,C2H6O2,5732,DTXSID8020597,OCCO,"InChI=1S/C2H6O2/c3-1-2-4/h3-4H,1-2H2",LYCAIKOWRPUZTN-UHFFFAOYSA-N,?,,"HANSCH,C ET AL. (1995)",-1.36
101090,107-29-9,107-29-9,[H]C([H])([H])C([H])([H])N=O,ACETALDEHYDE OXIME,Acetaldehyde oxime,(1E)-N-hydroxyethanimine,5733,DTXSID2020004,CCN=O,"InChI=1S/C2H5NO/c1-2-3-4/h2H2,1H3",IFYCAQIXDKZDTB-UHFFFAOYSA-N,?,,"HANSCH,C ET AL. (1995)",-0.13
101091,107-31-3,107-31-3,[H]C(=O)OC([H])([H])[H],METHYLFORMATE,Methyl formate,methyl formate,5734,DTXSID5025609,COC=O,"InChI=1S/C2H4O2/c1-4-2-3/h2H,1H3",TZIHFWKZFHZASV-UHFFFAOYSA-N,?,,"HANSCH,C ET AL. (1995)",0.03
101093,107-44-8,107-44-8,[H]C([H])([H])C([H])(OP(=O)(F)C([H])([H])[H])C([H])([H])[H],SARIN,Sarin,propan-2-yl methylphosphonofluoridate,5736,DTXSID0042371,CC(C)OP(C)(=O)F,"InChI=1S/C4H10FO2P/c1-4(2)7-8(3,5)6/h4H,1-3H3",DYAHQFWOVKZOOW-UHFFFAOYSA-N,?,,"MUNRO,NB ET AL. (1999)",0.3
101094,107-51-7,107-51-7,[H]C([H])([H])[Si](O[Si](C([H])([H])[H])(C([H])([H])[H])C([H])([H])[H])(O[Si](C([H])([H])[H])(C([H])([H])[H])C([H])([H])[H])C([H])([H])[H],OCTAMETHYLTRISILOXANE,Octamethyltrisiloxane,octamethyltrisiloxane,5737,DTXSID9040710,C[Si](C)(O[Si](C)(C)C)O[Si](C)(C)C,"InChI=1S/C8H24O2Si3/c1-11(2,3)9-13(7,8)10-12(4,5)6/h1-8H3",CXQXSVUQTKDNFP-UHFFFAOYSA-N,?,,SEHSC (2009),6.6
101095,107-87-9,107-87-9,[H]C([H])([H])C(=O)C([H])([H])C([H])([H])C([H])([H])[H],2-PENTANONE,2-Pentanone,pentan-2-one,5738,DTXSID0021888,CCCC(C)=O,"InChI=1S/C5H10O/c1-3-4-5(2)6/h3-4H2,1-2H3",XNLICIUVMPYHGG-UHFFFAOYSA-N,?,,"HANSCH,C ET AL. (1995)",0.91
101097,107-94-8,107-94-8,[H]OC(=O)C([H])([H])C([H])([H])Cl,3-CHLOROPROPIONIC ACID,3-Chloropropanoic acid,3-chloropropanoic acid,5740,DTXSID5021546,OC(=O)CCCl,"InChI=1S/C3H5ClO2/c4-2-1-3(5)6/h1-2H2,(H,5,6)",QEYMMOKECZBKAC-UHFFFAOYSA-N,?,,"HANSCH,C ET AL. (1995)",0.41
101098,107-95-9,107-95-9,[H]OC(=O)C([H])([H])C([H])([H])N([H])[H],BETA-ALANINE,beta-Alanine,beta-alanine,5741,DTXSID0030823,NCCC(O)=O,"InChI=1S/C3H7NO2/c4-2-1-3(5)6/h1-2,4H2,(H,5,6)",UCMIRNVEIXFBKS-UHFFFAOYSA-N,?,,"TSAI,RS ET AL. (1991)",-3.05
101099,107-96-0,107-96-0,[H]OC(=O)C([H])([H])C([H])([H])S[H],3-MERCAPTOPROPIONIC ACID,3-Mercaptopropanoic acid,3-sulfanylpropanoic acid,5742,DTXSID8026775,OC(=O)CCS,"InChI=1S/C3H6O2S/c4-3(5)1-2-6/h6H,1-2H2,(H,4,5)",DKIDEFUBRARXTE-UHFFFAOYSA-N,?,,"HANSCH,C ET AL. (1995)",0.43
101101,108-03-2,108-03-2,[H]C([H])([H])C([H])([H])C([H])([H])[N+](=O)[O-],1-NITROPROPANE,1-Nitropropane,1-nitropropane,5744,DTXSID1020980,CCC[N+]([O-])=O,"InChI=1S/C3H7NO2/c1-2-3-4(5)6/h2-3H2,1H3",JSZOAYXJRCEYSX-UHFFFAOYSA-N,?,,"HANSCH,C ET AL. (1995)",0.87
101102,108-05-4,108-05-4,[H]C([H])=C([H])OC(=O)C([H])([H])[H],VINYL ACETATE,Vinyl acetate,ethenyl acetate,5745,DTXSID3021431,CC(=O)OC=C,"InChI=1S/C4H6O2/c1-3-6-4(2)5/h3H,1H2,2H3",XTXRWKRVRITETP-UHFFFAOYSA-N,?,,"HANSCH,C ET AL. (1995)",0.73
101103,108-10-1,108-10-1,[H]C([H])([H])C(=O)C([H])([H])C([H])(C([H])([H])[H])C([H])([H])[H],4-METHYL-2-PENTANONE,4-Methyl-2-pentanone,4-methylpentan-2-one,5746,DTXSID5021889,CC(C)CC(C)=O,"InChI=1S/C6H12O/c1-5(2)4-6(3)7/h5H,4H2,1-3H3",NTIZESTWPVYFNL-UHFFFAOYSA-N,?,,"TANII,H & HASHIMOTO,K (1986)",1.31
101105,108-20-3,108-20-3,[H]C([H])([H])C([H])(OC([H])(C([H])([H])[H])C([H])([H])[H])C([H])([H])[H],DI-ISOPROPYL ETHER,Isopropyl ether,dipropan-2-yl ether,5748,DTXSID4021890,CC(C)OC(C)C,"InChI=1S/C6H14O/c1-5(2)7-6(3)4/h5-6H,1-4H3",ZAFNJMIOTHYJRJ-UHFFFAOYSA-N,?,,"FUNASAKI,N ET AL. (1985)",1.52
101106,108-27-0,1558-60-7,[H]N1C(=O)C([H])([H])C([H])([H])C1([H])C([H])([H])[H],"2-PYRROLIDINONE, 5-METHYL-","2-Pyrrolidinone, 5-methyl-, (5S)-",C5H9NO,5749,DTXSID40428668,CC1CCC(=O)N1,"InChI=1S/C5H9NO/c1-4-2-3-5(7)6-4/h4H,2-3H2,1H3,(H,6,7)",YVIVRJLWYJGJTJ-UHFFFAOYSA-N,?,,"KIM,CK ET AL. (1993)",-0.1
101107,108-32-7,108-32-7,[H]C([H])([H])C1([H])OC(=O)OC1([H])[H],PROPYLENE CARBONATE,Propylene carbonate,"4-methyl-1,3-dioxolan-2-one",5750,DTXSID2026789,CC1COC(=O)O1,"InChI=1S/C4H6O3/c1-3-2-6-4(5)7-3/h3H,2H2,1H3",RUOJZAUFBMNUDX-UHFFFAOYSA-N,?,,"HANSCH,C ET AL. (1995)",-0.41
101109,108-37-2,108-37-2,[H]C1=C([H])C(Br)=C([H])C(Cl)=C1[H],M-BROMOCHLOROBENZENE,"Benzene, 1-bromo-3-chloro-",1-Bromo-3-chlorobenzene,5752,DTXSID6059360,Clc1cc(Br)ccc1,InChI=1S/C6H4BrCl/c7-5-2-1-3-6(8)4-5/h1-4H,JRGGUPZKKTVKOV-UHFFFAOYSA-N,?,,"DUNN,WJ ET AL. (1983)",3.7
101110,108-38-3,108-38-3,[H]C1=C([H])C(C([H])([H])[H])=C([H])C(C([H])([H])[H])=C1[H],M-XYLENE,m-Xylene,C8H10,5753,DTXSID6026298,Cc1cc(C)ccc1,"InChI=1S/C8H10/c1-7-4-3-5-8(2)6-7/h3-6H,1-2H3",IVSZLXZYQVIEFR-UHFFFAOYSA-N,?,,"HANSCH,C ET AL. (1995)",3.2
101111,108-39-4,108-39-4,[H]OC1=C([H])C([H])=C([H])C(C([H])([H])[H])=C1[H],M-CRESOL,m-Cresol,3-methylphenol,5754,DTXSID6024200,Cc1cc(O)ccc1,"InChI=1S/C7H8O/c1-6-3-2-4-7(8)5-6/h2-5,8H,1H3",RLSSMJSEOOYNOY-UHFFFAOYSA-N,?,,"HANSCH,C ET AL. (1995)",1.96
101113,108-42-9,108-42-9,[H]C1=C([H])C(Cl)=C([H])C(N([H])[H])=C1[H],3-CHLOROANILINE,3-Chloroaniline,3-chloroaniline,5756,DTXSID0024761,Nc1cc(Cl)ccc1,"InChI=1S/C6H6ClN/c7-5-2-1-3-6(8)4-5/h1-4H,8H2",PNPCRKVUWYDDST-UHFFFAOYSA-N,?,,"HANSCH,C ET AL. (1995)",1.88
101114,108-43-0,108-43-0,[H]OC1=C([H])C([H])=C([H])C(Cl)=C1[H],3-CHLOROPHENOL,3-Chlorophenol,3-chlorophenol,5757,DTXSID4024800,Oc1cc(Cl)ccc1,"InChI=1S/C6H5ClO/c7-5-2-1-3-6(8)4-5/h1-4,8H",HORNXRXVQWOLPJ-UHFFFAOYSA-N,?,,"HANSCH,C ET AL. (1995)",2.5
101115,108-44-1,108-44-1,[H]C1=C([H])C(N([H])[H])=C([H])C(C([H])([H])[H])=C1[H],M-TOLUIDINE,3-Methylaniline,3-methylaniline,5758,DTXSID1026792,Cc1cc(N)ccc1,"InChI=1S/C7H9N/c1-6-3-2-4-7(8)5-6/h2-5H,8H2,1H3",JJYPMNFTHPTTDI-UHFFFAOYSA-N,?,,"HANSCH,C ET AL. (1995)",1.4
101117,108-46-3,108-46-3,[H]OC1=C([H])C([H])=C([H])C(O[H])=C1[H],RESORCINOL,Resorcinol,"benzene-1,3-diol",5760,DTXSID2021238,Oc1cc(O)ccc1,"InChI=1S/C6H6O2/c7-5-2-1-3-6(8)4-5/h1-4,7-8H",GHMLBKRAJCXXBS-UHFFFAOYSA-N,?,,"HANSCH,C ET AL. (1995)",0.8
101118,108-48-5,108-48-5,[H]C1=C([H])C([H])=C(C([H])([H])[H])N=C1C([H])([H])[H],"2,6-LUTIDINE","2,6-Dimethylpyridine","2,6-dimethylpyridine",5761,DTXSID7051557,Cc1cccc(C)[n]1,"InChI=1S/C7H9N/c1-6-4-3-5-7(2)8-6/h3-5H,1-2H3",OISVCGZHLKNMSJ-UHFFFAOYSA-N,?,,"HANSCH,C ET AL. (1995)",1.68
101119,108-50-9,108-50-9,[H]C1=NC([H])=C(C([H])([H])[H])N=C1C([H])([H])[H],"PYRAZINE, 2,6-DIMETHYL-","2,6-Dimethylpyrazine","2,6-dimethylpyrazine",5762,DTXSID5047619,Cc1c[n]cc(C)[n]1,"InChI=1S/C6H8N2/c1-5-3-7-4-6(2)8-5/h3-4H,1-2H3",HJFZAYHYIWGLNL-UHFFFAOYSA-N,?,,"YAMAGAMI,C ET AL. (1991)",0.54
101121,108-59-8,108-59-8,[H]C([H])([H])OC(=O)C([H])([H])C(=O)OC([H])([H])[H],"PROPANEDIOIC ACID, DIMETHYL ESTER",Dimethyl malonate,dimethyl propanedioate,5764,DTXSID4029145,COC(=O)CC(=O)OC,"InChI=1S/C5H8O4/c1-8-4(6)3-5(7)9-2/h3H2,1-2H3",BEPAFCGSDWSTEL-UHFFFAOYSA-N,?,,"HANSCH,C ET AL. (1995)",-0.05
101122,108-60-1,108-60-1,[H]C([H])([H])C([H])(OC([H])(C([H])([H])[H])C([H])([H])Cl)C([H])([H])Cl,"DCIP  (2,2'-OXYBIS-1-CHLOROPROPANE)",bis(2-Chloro-1-methylethyl) ether,C6H12Cl2O,5765,DTXSID4020167,CC(CCl)OC(C)CCl,"InChI=1S/C6H12Cl2O/c1-5(3-7)9-6(2)4-8/h5-6H,3-4H2,1-2H3",QCFYJCYNJLBDRT-UHFFFAOYSA-N,?,,"KAWAMOTO,K & URANO,K (1989)",2.48
101123,108-62-3,108-62-3,[H]C([H])([H])C1([H])OC([H])(C([H])([H])[H])OC([H])(C([H])([H])[H])OC([H])(C([H])([H])[H])O1,Metaldehyde (tetramer),Metaldehyde acetaldehyde tetramer,"2,4,6,8-tetramethyl-1,3,5,7-tetroxocane",5766,DTXSID1034715,CC1OC(C)OC(C)OC(C)O1,"InChI=1S/C8H16O4/c1-5-9-6(2)11-8(4)12-7(3)10-5/h5-8H,1-4H3",GKKDCARASOJPNG-UHFFFAOYSA-N,?,,"TOMLIN,C (2003)",0.12
101125,108-67-8,108-67-8,[H]C1=C(C([H])([H])[H])C([H])=C(C([H])([H])[H])C([H])=C1C([H])([H])[H],"1,3,5-TRIMETHYLBENZENE","1,3,5-Trimethylbenzene","1,3,5-trimethylbenzene",5768,DTXSID6026797,Cc1cc(C)cc(C)c1,"InChI=1S/C9H12/c1-7-4-8(2)6-9(3)5-7/h4-6H,1-3H3",AUHZEENZYGFFBQ-UHFFFAOYSA-N,?,,"HANSCH,C ET AL. (1995)",3.42