ChemID,source_casrn,CAS,SMILES,NAME,preferred_name,iupac,MPID,dsstox_substance_id,Canonical_QSARr,InChI_Code_QSARr,InChI Key_QSARr,Salt_Solvent,Salt_Solvent_ID,Kow Reference,LogP
103558,1878-81-5,1878-81-5,[H]OC(=O)C([H])([H])OC1=C([H])C([H])=C(C(=O)C([H])([H])[H])C([H])=C1[H],P-ACETYLPHENOXYACETIC ACID,(p-Acetylphenoxy)acetic acid,2-(4-acetylphenoxy)acetic acid,8090,DTXSID60172090,CC(=O)c1ccc(cc1)OCC(O)=O,"InChI=1S/C10H10O4/c1-7(11)8-2-4-9(5-3-8)14-6-10(12)13/h2-5H,6H2,1H3,(H,12,13)",KMXZEXUYXUMHEQ-UHFFFAOYSA-N,?,,"HANSCH,C ET AL. (1995)",0.87
103559,1878-82-6,1878-82-6,[H]OC(=O)C([H])([H])OC1=C([H])C([H])=C(C#N)C([H])=C1[H],P-CYANOPHENOXYACETIC ACID,(4-cyanophenoxy)acetic acid,C9H7NO3,8091,DTXSID30352923,N#Cc1ccc(cc1)OCC(O)=O,"InChI=1S/C9H7NO3/c10-5-7-1-3-8(4-2-7)13-6-9(11)12/h1-4H,6H2,(H,11,12)",BJGOCBAHPWALBX-UHFFFAOYSA-N,?,,"HANSCH,C ET AL. (1995)",0.93
103560,1878-83-7,1878-83-7,[H]OC(=O)C([H])([H])OC1=C([H])C([H])=C([H])C(O[H])=C1[H],M-HYDROXYPHENOXYACETIC ACID,,,8092,DTXSID20879391,Oc1cccc(c1)OCC(O)=O,"InChI=1S/C8H8O4/c9-6-2-1-3-7(4-6)12-5-8(10)11/h1-4,9H,5H2,(H,10,11)",VOCNHWIPXOIAAU-UHFFFAOYSA-N,?,,"HANSCH,C ET AL. (1995)",0.76
103562,1878-85-9,1878-85-9,[H]OC(=O)C([H])([H])OC1=C([H])C([H])=C([H])C([H])=C1OC([H])([H])[H],O-METHOXY PHENOXYACETIC ACID,(2-Methoxyphenoxy)acetic acid,2-(2-Methoxyphenoxy)acetic acid,8094,DTXSID5075153,COc1ccccc1OCC(O)=O,"InChI=1S/C9H10O4/c1-12-7-4-2-3-5-8(7)13-6-9(10)11/h2-5H,6H2,1H3,(H,10,11)",IHONYPFTXGQWAX-UHFFFAOYSA-N,?,,"HANSCH,C ET AL. (1995)",0.98
103563,1878-87-1,1878-87-1,[H]OC(=O)C([H])([H])OC1=C([H])C([H])=C([H])C([H])=C1[N+](=O)[O-],O-NITROPHENOXYACETIC ACID,(2-Nitrophenoxy)acetic acid,2-(2-Nitrophenoxy)acetic acid,8095,DTXSID0075154,[O-][N+](=O)c1ccccc1OCC(O)=O,"InChI=1S/C8H7NO5/c10-8(11)5-14-7-4-2-1-3-6(7)9(12)13/h1-4H,5H2,(H,10,11)",TYHHDWAHJRRYCU-UHFFFAOYSA-N,?,,SANGSTER (1994),1.13
103564,1878-88-2,1878-88-2,[H]OC(=O)C([H])([H])OC1=C([H])C([H])=C([H])C([N+](=O)[O-])=C1[H],M-NITROPHENOXYACETIC ACID,(3-Nitrophenoxy)acetic acid,2-(3-nitrophenoxy)acetic acid,8096,DTXSID20172091,[O-][N+](=O)c1cc(ccc1)OCC(O)=O,"InChI=1S/C8H7NO5/c10-8(11)5-14-7-3-1-2-6(4-7)9(12)13/h1-4H,5H2,(H,10,11)",BNRRQAASFDGMMQ-UHFFFAOYSA-N,?,,"HANSCH,C ET AL. (1995)",1.37
103566,1878-91-7,1878-91-7,[H]OC(=O)C([H])([H])OC1=C([H])C([H])=C(Br)C([H])=C1[H],P-BROMOPHENOXYACETIC ACID,"Acetic acid, (4-bromophenoxy)-",2-(4-bromophenoxy)acetic acid,8098,DTXSID2062034,OC(=O)COc1ccc(Br)cc1,"InChI=1S/C8H7BrO3/c9-6-1-3-7(4-2-6)12-5-8(10)11/h1-4H,5H2,(H,10,11)",SZEBGAQWWSUOHT-UHFFFAOYSA-N,?,,"HANSCH,C ET AL. (1995)",2.45
103567,1878-92-8,1878-92-8,[H]OC(=O)C([H])([H])OC1=C([H])C([H])=C([H])C([H])=C1I,O-IODOPHENOXYACETIC ACID,PUBCHEM_53440685,C8H7IO3,8099,DTXSID70702721,OC(=O)COc1ccccc1I,"InChI=1S/C8H7IO3/c9-6-3-1-2-4-7(6)12-5-8(10)11/h1-4H,5H2,(H,10,11)",OXMKQZUBDBNJTE-UHFFFAOYSA-N,?,,"HANSCH,C ET AL. (1995)",2.33
103568,1878-93-9,1878-93-9,[H]OC(=O)C([H])([H])OC1=C([H])C([H])=C([H])C(I)=C1[H],M-IODOPHENOXYACETIC ACID,,,8100,DTXSID70879341,OC(=O)COc1cccc(I)c1,"InChI=1S/C8H7IO3/c9-6-2-1-3-7(4-6)12-5-8(10)11/h1-4H,5H2,(H,10,11)",FNKRPPVPTWVSFF-UHFFFAOYSA-N,?,,"HANSCH,C ET AL. (1995)",2.44
103570,1879-56-7,1879-56-7,[H]OC(=O)C([H])([H])OC1=C([H])C([H])=C([H])C([H])=C1Br,O-BROMOPHENOXYACETIC ACID,,,8102,DTXSID10879325,OC(=O)COc1ccccc1Br,"InChI=1S/C8H7BrO3/c9-6-3-1-2-4-7(6)12-5-8(10)11/h1-4H,5H2,(H,10,11)",AZYODYPUWJPKOI-UHFFFAOYSA-N,?,,"HANSCH,C ET AL. (1995)",2.04
103571,1879-58-9,1879-58-9,[H]OC(=O)C([H])([H])OC1=C([H])C([H])=C([H])C(C#N)=C1[H],M-CYANOPHENOXYACETIC ACID,2-(3-cyanophenoxy)acetic acid,C9H7NO3,8103,DTXSID60481154,N#Cc1cc(ccc1)OCC(O)=O,"InChI=1S/C9H7NO3/c10-5-7-2-1-3-8(4-7)13-6-9(11)12/h1-4H,6H2,(H,11,12)",UXBVJOUILGIGHW-UHFFFAOYSA-N,?,,"HANSCH,C ET AL. (1995)",0.95
103572,1879-77-2,NOCAS_862772,[H]OC1([H])C([H])([H])C2(C([H])([H])[H])C(O[H])(C(=O)C([H])([H])[H])C([H])(C([H])([H])[H])C([H])([H])C2([H])C2([H])C([H])([H])C([H])([H])C3=C([H])C(=O)C([H])=C([H])C3(C([H])([H])[H])C12F,Doxibetasol,,,8104,DTXSID10862772,CC(=O)C1(O)C(C)CC2C3CCC4=CC(=O)C=CC4(C)C3(F)C(O)CC12C,"InChI=1S/C22H29FO4/c1-12-9-17-16-6-5-14-10-15(25)7-8-19(14,3)21(16,23)18(26)11-20(17,4)22(12,27)13(2)24/h7-8,10,12,16-18,26-27H,5-6,9,11H2,1-4H3",IKGBPSZWCRRUQS-UHFFFAOYSA-N,?,,BIOBYTE (1995),2.35
103574,1883-15-4,1883-15-4,[H]OC1=C(C([H])([H])O[H])C(OP(=O)(O[H])O[H])=C([H])N=C1C([H])([H])[H],"3,4-PYRIDINEDIMETHANOL, 6-METHYL-5-(PHOSPHONOOXY",,,8106,DTXSID70878955,Cc1[n]cc(OP(O)(O)=O)c(CO)c1O,"InChI=1S/C7H10NO6P/c1-4-7(10)5(3-9)6(2-8-4)14-15(11,12)13/h2,9-10H,3H2,1H3,(H2,11,12,13)",NEFFNXYCFULHII-UHFFFAOYSA-N,?,,SANGSTER (1994),-0.64
103575,1885-29-6,1885-29-6,[H]C1=C([H])C(C#N)=C(N([H])[H])C([H])=C1[H],"Benzonitrile, 2-amino-",2-Aminobenzonitrile,2-aminobenzonitrile,8107,DTXSID9051824,Nc1ccccc1C#N,"InChI=1S/C7H6N2/c8-5-6-3-1-2-4-7(6)9/h1-4H,9H2",HLCPWBZNUKCSBN-UHFFFAOYSA-N,?,,"HANSCH,C ET AL. (1995)",1.4
103576,1885-38-7,1885-38-7,[H]C1=C([H])C([H])=C(/C([H])=C(\[H])C#N)C([H])=C1[H],3-PHENYL-2-PROPENENITRILE,(2E)-3-Phenylprop-2-enenitrile,(2E)-3-phenylprop-2-enenitrile,8108,DTXSID8044385,N#CC=Cc1ccccc1,InChI=1S/C9H7N/c10-8-4-7-9-5-2-1-3-6-9/h1-7H/b7-4+,ZWKNLRXFUTWSOY-QPJJXVBHSA-N,?,,"HANSCH,C ET AL. (1995)",1.96
103578,1891-90-3,1891-90-3,[H]C1=C([H])C(C(F)(F)F)=C([H])C([H])=C1C(=O)N([H])[H],P-TRIFLUOROMETHYLBENZAMIDE,4-(Trifluoromethyl)benzamide,4-(Trifluoromethyl)benzamide,8110,DTXSID70172304,NC(=O)c1ccc(cc1)C(F)(F)F,"InChI=1S/C8H6F3NO/c9-8(10,11)6-3-1-5(2-4-6)7(12)13/h1-4H,(H2,12,13)",WEJHBEDHLLBJFW-UHFFFAOYSA-N,?,,"HANSCH,C ET AL. (1995)",1.71
103579,1893-33-0,1893-33-0,[H]C1=C([H])C(C(=O)C([H])([H])C([H])([H])C([H])([H])N2C([H])([H])C([H])([H])C(C(=O)N([H])[H])(N3C([H])([H])C([H])([H])C([H])([H])C([H])([H])C3([H])[H])C([H])([H])C2([H])[H])=C([H])C([H])=C1F,PIPAMPERONE,Pipamperone,"1'-[4-(4-fluorophenyl)-4-oxobutyl]-1,4'-bipiperidine-4'-carboxamide",8111,DTXSID8048369,NC(=O)C1(CCN(CCCC(=O)c2ccc(F)cc2)CC1)N1CCCCC1,"InChI=1S/C21H30FN3O2/c22-18-8-6-17(7-9-18)19(26)5-4-12-24-15-10-21(11-16-24,20(23)27)25-13-2-1-3-14-25/h6-9H,1-5,10-16H2,(H2,23,27)",AXKPFOAXAHJUAG-UHFFFAOYSA-N,?,,"HANSCH,C ET AL. (1995)",2.02
103580,1897-45-6,1897-45-6,N#CC1=C(Cl)C(Cl)=C(Cl)C(C#N)=C1Cl,CHLOROTHALONIL,Chlorothalonil,"2,4,5,6-tetrachlorobenzene-1,3-dicarbonitrile",8112,DTXSID0020319,N#Cc1c(Cl)c(Cl)c(Cl)c(C#N)c1Cl,InChI=1S/C8Cl4N2/c9-5-3(1-13)6(10)8(12)7(11)4(5)2-14,CRQQGFGUEAVUIL-UHFFFAOYSA-N,?,,"KRAWCHUK,BP & WEBSTER,GRB (1987)",3.05
103582,1899-94-1,1899-94-1,[H]C1=C([H])C(C([H])([H])[H])=C([H])C(S(=O)(=O)N([H])[H])=C1[H],M-METHYLBENZENESULFONAMIDE,m-Toluenesulphonamide,3-methylbenzenesulfonamide,8114,DTXSID40172417,Cc1cc(ccc1)S(N)(=O)=O,"InChI=1S/C7H9NO2S/c1-6-3-2-4-7(5-6)11(8,9)10/h2-5H,1H3,(H2,8,9,10)",NVZINPVISUVPHW-UHFFFAOYSA-N,?,,"HANSCH,C ET AL. (1995)",0.85
103583,1904-58-1,1904-58-1,[H]C1=C([H])C([H])=C(N([H])[H])C(C(=O)N([H])N([H])[H])=C1[H],"BENZOYLHYDRAZINE, O-AMINO","Benzoic acid, 2-amino-, hydrazide",2-aminobenzohydrazide,8115,DTXSID5062051,Nc1ccccc1C(=O)NN,"InChI=1S/C7H9N3O/c8-6-4-2-1-3-5(6)7(11)10-9/h1-4H,8-9H2,(H,10,11)",GRWMSCBKWMQPON-UHFFFAOYSA-N,?,,"HANSCH,C ET AL. (1995)",-0.18
103584,1910-42-5,1910-42-5,C[N+]1=CC=C(C2=CC=[N+](C)C=C2)C=C1,Paraquat dichloride,Paraquat dichloride,"1,1'-dimethyl-4,4'-bipyridinium dichloride",8116,DTXSID7024243,C[n+]1ccc(cc1)-c1cc[n+](C)cc1,"InChI=1S/C12H14N2/c1-13-7-3-11(4-8-13)12-5-9-14(2)10-6-12/h3-10H,1-2H3/q+2",INFDPOAKFNIJBF-UHFFFAOYSA-N,[Cl-].[Cl-],2,"TOMLIN,C (2003)",-4.5
103586,1912-25-0,1912-25-0,[H]N(C1=NC(Cl)=NC(N(C([H])([H])C([H])([H])[H])C([H])([H])C([H])([H])[H])=N1)C([H])(C([H])([H])[H])C([H])([H])[H],IPAZINE,Ipazine,"6-chloro-N,N-diethyl-N'-(propan-2-yl)-1,3,5-triazine-2,4-diamine",8118,DTXSID8042056,CC(C)Nc1[n]c([n]c(Cl)[n]1)N(CC)CC,"InChI=1S/C10H18ClN5/c1-5-16(6-2)10-14-8(11)13-9(15-10)12-7(3)4/h7H,5-6H2,1-4H3,(H,12,13,14,15)",OWYWGLHRNBIFJP-UHFFFAOYSA-N,?,,"HANSCH,C ET AL. (1995)",3.94
103587,1912-26-1,1912-26-1,[H]N(C1=NC(N(C([H])([H])C([H])([H])[H])C([H])([H])C([H])([H])[H])=NC(Cl)=N1)C([H])([H])C([H])([H])[H],TRIETAZINE,Trietazine,"6-chloro-N,N,N'-triethyl-1,3,5-triazine-2,4-diamine",8119,DTXSID2042488,CCNc1[n]c([n]c(Cl)[n]1)N(CC)CC,"InChI=1S/C9H16ClN5/c1-4-11-8-12-7(10)13-9(14-8)15(5-2)6-3/h4-6H2,1-3H3,(H,11,12,13,14)",HFBWPRKWDIRYNX-UHFFFAOYSA-N,?,,"HANSCH,C ET AL. (1995)",3.34
103588,1918-00-9,1918-00-9,[H]OC(=O)C1=C(Cl)C([H])=C([H])C(Cl)=C1OC([H])([H])[H],DICAMBA,Dicamba,"3,6-dichloro-2-methoxybenzoic acid",8120,DTXSID4024018,COc1c(C(O)=O)c(Cl)ccc1Cl,"InChI=1S/C8H6Cl2O3/c1-13-7-5(10)3-2-4(9)6(7)8(11)12/h2-3H,1H3,(H,11,12)",IWEDIXLBFLAXBO-UHFFFAOYSA-N,?,,"HANSCH,C ET AL. (1995)",2.21
103590,1918-16-7,1918-16-7,[H]C1=C([H])C([H])=C(N(C(=O)C([H])([H])Cl)C([H])(C([H])([H])[H])C([H])([H])[H])C([H])=C1[H],PROPACHLOR,Propachlor,2-chloro-N-phenyl-N-(propan-2-yl)acetamide,8122,DTXSID4024274,CC(C)N(C(=O)CCl)c1ccccc1,"InChI=1S/C11H14ClNO/c1-9(2)13(11(14)8-12)10-6-4-3-5-7-10/h3-7,9H,8H2,1-2H3",MFOUDYKPLGXPGO-UHFFFAOYSA-N,?,,"HANSCH,C ET AL. (1995)",2.18
103591,1918-18-9,1918-18-9,[H]C1=C(Cl)C(Cl)=C([H])C(N([H])C(=O)OC([H])([H])[H])=C1[H],"METHYL (3,4-DICHLOROPHENYL)CARBAMATE",Swep,"methyl (3,4-dichlorophenyl)carbamate",8123,DTXSID7042437,COC(=O)Nc1cc(Cl)c(Cl)cc1,"InChI=1S/C8H7Cl2NO2/c1-13-8(12)11-5-2-3-6(9)7(10)4-5/h2-4H,1H3,(H,11,12)",WOZQBERUBLYCEG-UHFFFAOYSA-N,?,,SANGSTER (1993),3.32
103593,1928-43-4,1928-43-4,[H]C1=C(Cl)C([H])=C(Cl)C(OC([H])([H])C(=O)OC([H])([H])C([H])(C([H])([H])C([H])([H])[H])C([H])([H])C([H])([H])C([H])([H])C([H])([H])[H])=C1[H],"2-Ethylhexyl 2,4-dichlorophenoxyacetate","2,4-D 2-EHE","2-ethylhexyl (2,4-dichlorophenoxy)acetate",8124,DTXSID4034235,CCCCC(COC(=O)COc1ccc(Cl)cc1Cl)CC,"InChI=1S/C16H22Cl2O3/c1-3-5-6-12(4-2)10-21-16(19)11-20-15-8-7-13(17)9-14(15)18/h7-9,12H,3-6,10-11H2,1-2H3",QZSFJRIWRPJUOH-UHFFFAOYSA-N,?,,"TOMLIN,C (2003)",5.78
103596,1929-82-4,1929-82-4,[H]C1=C([H])C([H])=C(C(Cl)(Cl)Cl)N=C1Cl,NITRAPYRIN,Nitrapyrin,2-chloro-6-(trichloromethyl)pyridine,8126,DTXSID0024216,Clc1cccc([n]1)C(Cl)(Cl)Cl,"InChI=1S/C6H3Cl4N/c7-5-3-1-2-4(11-5)6(8,9)10/h1-3H",DCUJJWWUNKIJPH-UHFFFAOYSA-N,?,,"HANSCH,C ET AL. (1995)",3.41
103597,1934-92-5,1934-92-5,[H]C1=C([H])C([H])=C(C(=O)N(C2=C([H])C([H])=C([H])C([H])=C2[H])C([H])([H])[H])C([H])=C1[H],N-METHYLBENZANILIDE,N-Methylbenzanilide,N-methyl-N-phenylbenzamide,8127,DTXSID70172940,CN(C(=O)c1ccccc1)c1ccccc1,"InChI=1S/C14H13NO/c1-15(13-10-6-3-7-11-13)14(16)12-8-4-2-5-9-12/h2-11H,1H3",LCOPCEDFGGUYRD-UHFFFAOYSA-N,?,,"HANSCH,C ET AL. (1995)",2.36
103598,1939-21-5,1939-21-5,[H]C1=C([H])C([H])=C(C([H])([H])C(=O)N([H])C2=C([H])C(C(F)(F)F)=C([H])C([H])=C2[H])C([H])=C1[H],"Acetamide, N-phenyl-N-[3-(trifluoromethyl)phenyl",3'-Trifluoromethyl-2-phenylacetanilide,2-Phenyl-N-[3-(trifluoromethyl)phenyl]acetamide,8128,DTXSID60173002,O=C(Cc1ccccc1)Nc1cc(ccc1)C(F)(F)F,"InChI=1S/C15H12F3NO/c16-15(17,18)12-7-4-8-13(10-12)19-14(20)9-11-5-2-1-3-6-11/h1-8,10H,9H2,(H,19,20)",AWZJXXWDKOAELM-UHFFFAOYSA-N,?,,BIOBYTE (1995),3.84
103600,1943-79-9,1943-79-9,[H]C1=C([H])C([H])=C(OC(=O)N([H])C([H])([H])[H])C([H])=C1[H],N-METHYLPHENYLCARBAMATE,Phenyl methylcarbamate,Phenyl N-methylcarbamate,8130,DTXSID1073282,CNC(=O)Oc1ccccc1,"InChI=1S/C8H9NO2/c1-9-8(10)11-7-5-3-2-4-6-7/h2-6H,1H3,(H,9,10)",SCWKRWCUMCMVPW-UHFFFAOYSA-N,?,,"HANSCH,C ET AL. (1995)",1.24
103601,1943-87-9,1943-87-9,[H]C1=C([H])C([N+](=O)[O-])=C([H])C([H])=C1N([H])C(=O)OC([H])([H])[H],"CARBAMIC ACID, (4-NITROPHENYL)-, METHYL ESTER",Methyl (4-nitrophenyl)carbamate,methyl N-(4-nitrophenyl)carbamate,8131,DTXSID70173053,COC(=O)Nc1ccc(cc1)[N+]([O-])=O,"InChI=1S/C8H8N2O4/c1-14-8(11)9-6-2-4-7(5-3-6)10(12)13/h2-5H,1H3,(H,9,11)",DAWCBJXIGOELKF-UHFFFAOYSA-N,?,,"TAKAHASHI,K ET AL. (1988)",2.12
103602,1948-71-6,1948-71-6,[H]OC1=C([H])C([H])=C(C([H])([H])C([H])(C(=O)N([H])[H])N([H])C(=O)C([H])([H])[H])C([H])=C1[H],"TYROSINE-AMIDE,N-ACETYL",ST088588,C11H14N2O3,8132,DTXSID60876445,CC(=O)NC(Cc1ccc(O)cc1)C(N)=O,"InChI=1S/C11H14N2O3/c1-7(14)13-10(11(12)16)6-8-2-4-9(15)5-3-8/h2-5,10,15H,6H2,1H3,(H2,12,16)(H,13,14)",RJNKBEQRBIJDNM-UHFFFAOYSA-N,?,,"HANSCH,C ET AL. (1995)",-0.87
103604,1951-25-3,1951-25-3,[H]C1=C([H])C2=C(C([H])=C1[H])C(C(=O)C1=C([H])C(I)=C(OC([H])([H])C([H])([H])N(C([H])([H])C([H])([H])[H])C([H])([H])C([H])([H])[H])C(I)=C1[H])=C(C([H])([H])C([H])([H])C([H])([H])C([H])([H])[H])O2,Amiodarone,Amiodarone,"(2-butyl-1-benzofuran-3-yl){4-[2-(diethylamino)ethoxy]-3,5-diiodophenyl}methanone",8134,DTXSID7022592,CCCCc1oc2ccccc2c1C(=O)c1cc(I)c(OCCN(CC)CC)c(I)c1,"InChI=1S/C25H29I2NO3/c1-4-7-11-22-23(18-10-8-9-12-21(18)31-22)24(29)17-15-19(26)25(20(27)16-17)30-14-13-28(5-2)6-3/h8-10,12,15-16H,4-7,11,13-14H2,1-3H3",IYIKLHRQXLHMJQ-UHFFFAOYSA-N,?,,"AVDEEF,A (1997)",7.57
103605,1951-56-0,1951-56-0,[H]C1=C(/C([H])=C(\[H])C(=O)N([H])C([H])(C([H])([H])[H])C([H])([H])[H])OC([N+](=O)[O-])=C1[H],N-IPR-3-(5-NO2-2-FURYL)ACRYLAMIDE,,,8135,DTXSID30875965,CC(C)NC(=O)C=Cc1ccc(o1)[N+]([O-])=O,"InChI=1S/C10H12N2O4/c1-7(2)11-9(13)5-3-8-4-6-10(16-8)12(14)15/h3-7H,1-2H3,(H,11,13)/b5-3+",APOAEUBPCAZTDV-HWKANZROSA-N,?,,"HANSCH,C ET AL. (1995)",1.34
103606,1953-33-9,1953-33-9,[H]N1C(=O)N([H])C(=O)C([H])(C([H])([H])C([H])([H])C([H])([H])C([H])([H])[H])C1=O,"BARBITURIC ACID, 5-BUTYL",5-Butyl barbituric acid,C8H12N2O3,8136,DTXSID7062085,CCCCC1C(=O)NC(=O)NC1=O,"InChI=1S/C8H12N2O3/c1-2-3-4-5-6(11)9-8(13)10-7(5)12/h5H,2-4H2,1H3,(H2,9,10,11,12,13)",HTKIZIQFMHVTRJ-UHFFFAOYSA-N,?,,"HANSCH,C ET AL. (1995)",0.77
103609,1959-97-3,1959-97-3,[H]C1=C([H])C2=C(C(C3=C([H])C([H])=C(Cl)C([H])=C3[H])=NC([H])([H])C(=O)N2C([H])([H])[H])C([H])=C1F,"1,4-BENZODIAZPN2-ON,1-ME5(4-CLPH)7F",,,8138,DTXSID00877936,CN1C(=O)CN=C(c2cc(F)ccc12)c1ccc(Cl)cc1,"InChI=1S/C16H12ClFN2O/c1-20-14-7-6-12(18)8-13(14)16(19-9-15(20)21)10-2-4-11(17)5-3-10/h2-8H,9H2,1H3",BOAYIEYBUOMKDP-UHFFFAOYSA-N,?,,"HANSCH,C ET AL. (1995)",3.1
103610,1962-75-0,1962-75-0,[H]C1=C([H])C(C(=O)OC([H])([H])C([H])([H])C([H])([H])C([H])([H])[H])=C([H])C([H])=C1C(=O)OC([H])([H])C([H])([H])C([H])([H])C([H])([H])[H],P-DIBUTYLTEREPHTHALATE,Dibutyl terephthalate,"dibutyl benzene-1,4-dicarboxylate",8139,DTXSID3022168,CCCCOC(=O)c1ccc(cc1)C(=O)OCCCC,"InChI=1S/C16H22O4/c1-3-5-11-19-15(17)13-7-9-14(10-8-13)16(18)20-12-6-4-2/h7-10H,3-6,11-12H2,1-2H3",LQLQDKBJAIILIQ-UHFFFAOYSA-N,?,,"HANSCH,C ET AL. (1995)",5.53
103611,1967-25-5,1967-25-5,[H]C1=C([H])C(N([H])C(=O)N([H])[H])=C([H])C([H])=C1Br,P-BROMOPHENYLUREA,N-(4-Bromophenyl)urea,(4-bromophenyl)urea,8140,DTXSID30173337,NC(=O)Nc1ccc(Br)cc1,"InChI=1S/C7H7BrN2O/c8-5-1-3-6(4-2-5)10-7(9)11/h1-4H,(H3,9,10,11)",PFQUUCXMPUNRLA-UHFFFAOYSA-N,?,,"HANSCH,C ET AL. (1995)",1.98
103613,1972-71-0,1972-71-0,[H]OC1=C(C(=O)N([H])C(=O)C2=C(O[H])C([H])=C([H])C([H])=C2[H])C([H])=C([H])C([H])=C1[H],DISALICYLIMIDE,,,8142,DTXSID30877409,Oc1ccccc1C(=O)NC(=O)c1ccccc1O,"InChI=1S/C14H11NO4/c16-11-7-3-1-5-9(11)13(18)15-14(19)10-6-2-4-8-12(10)17/h1-8,16-17H,(H,15,18,19)",QBPYSJJNOYHIPX-UHFFFAOYSA-N,?,,"HANSCH,C ET AL. (1995)",1.92
103614,1975-50-4,1975-50-4,[H]OC(=O)C1=C([H])C([H])=C([H])C([N+](=O)[O-])=C1C([H])([H])[H],"BENZOIC ACID,2-METHYL-3-NITRO",2-Methyl-3-nitrobenzoic acid,2-methyl-3-nitrobenzoic acid,8143,DTXSID7025637,Cc1c(cccc1[N+]([O-])=O)C(O)=O,"InChI=1S/C8H7NO4/c1-5-6(8(10)11)3-2-4-7(5)9(12)13/h2-4H,1H3,(H,10,11)",YPQAFWHSMWWPLX-UHFFFAOYSA-N,?,,BIOBYTE STARLIST (2009),2.16
103616,1978-59-2,1978-59-2,[H]C1=C([H])C(C2=C([H])C([H])([H])N([H])C([H])([H])C2([H])[H])=C([H])C([H])=C1F,"PYRIDINE, 4-(4-FLUOROPHENYL)-1,2,3,6-TETRAHYDRO-",,,8144,DTXSID00876343,Fc1ccc(cc1)C1CCNCC=1,"InChI=1S/C11H12FN/c12-11-3-1-9(2-4-11)10-5-7-13-8-6-10/h1-5,13H,6-8H2",MVXXCFMHLWEWHY-UHFFFAOYSA-N,?,,"ALTOMARE,CA ET AL. (1992)",2.37
103618,1982-47-4,1982-47-4,[H]C1=C([H])C(OC2=C([H])C([H])=C(N([H])C(=O)N(C([H])([H])[H])C([H])([H])[H])C([H])=C2[H])=C([H])C([H])=C1Cl,CHLOROXURON,Chloroxuron,"3-[4-(4-chlorophenoxy)phenyl]-1,1-dimethylurea",8146,DTXSID7040287,CN(C)C(=O)Nc1ccc(cc1)Oc1ccc(Cl)cc1,"InChI=1S/C15H15ClN2O2/c1-18(2)15(19)17-12-5-9-14(10-6-12)20-13-7-3-11(16)4-8-13/h3-10H,1-2H3,(H,17,19)",IVUXTESCPZUGJC-UHFFFAOYSA-N,?,,"LIU,J & QIAN,C (1995)",3.7
103619,1982-49-6,1982-49-6,[H]C1=C([H])C([H])=C(N([H])C(=O)N([H])C2([H])C([H])([H])C([H])([H])C([H])([H])C([H])([H])C2([H])C([H])([H])[H])C([H])=C1[H],SIDURON,Siduron,1-(2-methylcyclohexyl)-3-phenylurea,8147,DTXSID7032474,CC1CCCCC1NC(=O)Nc1ccccc1,"InChI=1S/C14H20N2O/c1-11-7-5-6-10-13(11)16-14(17)15-12-8-3-2-4-9-12/h2-4,8-9,11,13H,5-7,10H2,1H3,(H2,15,16,17)",JXVIIQLNUPXOII-UHFFFAOYSA-N,?,,"TOMLIN,C (1997)",3.8
103620,1984-06-1,1984-06-1,[H]OC(=O)C([H])([H])C([H])([H])C([H])([H])C([H])([H])C([H])([H])C([H])([H])C([H])([H])[H],"OCTANOIC ACID, SODIUM SALT",Sodium octanoate,sodium octanoate,8148,DTXSID3027451,CCCCCCCC(O)=O,"InChI=1S/C8H16O2/c1-2-3-4-5-6-7-8(9)10/h2-7H2,1H3,(H,9,10)",WWZKQHOCKIZLMA-UHFFFAOYSA-N,[Na+],7,"MOSCHNER,KF & CECE,A (1995)",-1.38
103622,1984-65-2,1984-65-2,[H]C1=C([H])C(Cl)=C(OC([H])([H])[H])C(Cl)=C1[H],"Benzene, 1,3-dichloro-2-methoxy-","2,6-Dichloroanisole","1,3-dichloro-2-methoxybenzene",8150,DTXSID1062097,COc1c(Cl)cccc1Cl,"InChI=1S/C7H6Cl2O/c1-10-7-5(8)3-2-4-6(7)9/h2-4H,1H3",KZLMCDNAVVJKPX-UHFFFAOYSA-N,?,,"LUN,R ET AL. (1995)",3.14
103623,1985-12-2,1985-12-2,[H]C1=C([H])C(N=C=S)=C([H])C([H])=C1Br,P-BROMOPHENYL ISOTHIOCYANATE,4-Bromophenylisothiocyanate,1-bromo-4-isothiocyanatobenzene,8151,DTXSID30173594,S=C=Nc1ccc(Br)cc1,InChI=1S/C7H4BrNS/c8-6-1-3-7(4-2-6)9-5-10/h1-4H,XQACWEBGSZBLRG-UHFFFAOYSA-N,?,,"HANSCH,C ET AL. (1995)",4.03
103624,1985-51-9,1985-51-9,[H]C([H])=C(C(=O)OC([H])([H])C(C([H])([H])[H])(C([H])([H])[H])C([H])([H])OC(=O)C(=C([H])[H])C([H])([H])[H])C([H])([H])[H],NEOPENTYLGLYCOL DIMETHACRYLATE,"2,2-Dimethylpropane-1,3-diyl bis(2-methylprop-2-enoate)","2,2-dimethylpropane-1,3-diyl bis(2-methylprop-2-enoate)",8152,DTXSID5044867,CC(C)(COC(=O)C(C)=C)COC(=O)C(C)=C,"InChI=1S/C13H20O4/c1-9(2)11(14)16-7-13(5,6)8-17-12(15)10(3)4/h1,3,7-8H2,2,4-6H3",ULQMPOIOSDXIGC-UHFFFAOYSA-N,?,,SANGSTER (1993),2.79
103626,2002-16-6,2002-16-6,[H]C1=C([H])C([H])=C(N=C(N([H])[H])N([H])[H])C([H])=C1[H],2-PHENYLGUANIDINE,Phenylguanidine,2-phenylguanidine,8154,DTXSID70173836,NC(N)=Nc1ccccc1,"InChI=1S/C7H9N3/c8-7(9)10-6-4-2-1-3-5-6/h1-5H,(H4,8,9,10)",QRJZGVVKGFIGLI-UHFFFAOYSA-N,?,,"HANSCH,C ET AL. (1995)",0.53
103627,2002-29-1,2002-29-1,[H]OC1([H])C([H])([H])C2(C([H])([H])[H])C(O[H])(C(=O)C([H])([H])OC(=O)C(C([H])([H])[H])(C([H])([H])[H])C([H])([H])[H])C([H])(C([H])([H])[H])C([H])([H])C2([H])C2([H])C([H])([H])C([H])(F)C3=C([H])C(=O)C([H])=C([H])C3(C([H])([H])[H])C12F,FLUMETHASONE-21-PIVALATE,Flumethasone pivalate,"(6alpha,8xi,10xi,11beta,13xi,16alpha)-6,9-difluoro-11,17-dihydroxy-16-methyl-3,20-dioxopregna-1,4-dien-21-yl 2,2-dimethylpropanoate",8155,DTXSID7049005,CC(C)(C)C(=O)OCC(=O)C1(O)C(C)CC2C3CC(F)C4=CC(=O)C=CC4(C)C3(F)C(O)CC12C,"InChI=1S/C27H36F2O6/c1-14-9-16-17-11-19(28)18-10-15(30)7-8-24(18,5)26(17,29)20(31)12-25(16,6)27(14,34)21(32)13-35-22(33)23(2,3)4/h7-8,10,14,16-17,19-20,31,34H,9,11-13H2,1-6H3",JWRMHDSINXPDHB-UHFFFAOYSA-N,?,,"HANSCH,C ET AL. (1995)",3.86
103628,2002-36-0,2002-36-0,[H]C1=NC(N([H])[H])=C2N=C([H])N(C([H])([H])C([H])([H])C([H])([H])C([H])([H])C([H])([H])[H])C2=N1,9-PENTYLADENINE,9-pentylpurin-6-amine,C10H15N5,8156,DTXSID00289398,CCCCC[n]1c[n]c2c(N)[n]c[n]c12,"InChI=1S/C10H15N5/c1-2-3-4-5-15-7-14-8-9(11)12-6-13-10(8)15/h6-7H,2-5H2,1H3,(H2,11,12,13)",UHFFXCBWXZHMML-UHFFFAOYSA-N,?,,"HANSCH,C ET AL. (1995)",1.79
103632,2008-58-4,2008-58-4,[H]C1=C([H])C(Cl)=C(C(=O)N([H])[H])C(Cl)=C1[H],"2,6-DICHLOROBENZAMIDE","2,6-Dichlorobenzamide","2,6-dichlorobenzamide",8159,DTXSID7022170,NC(=O)c1c(Cl)cccc1Cl,"InChI=1S/C7H5Cl2NO/c8-4-2-1-3-5(9)6(4)7(10)11/h1-3H,(H2,10,11)",JHSPCUHPSIUQRB-UHFFFAOYSA-N,?,,"NAKAGAWA,Y ET AL. (1992)",0.77
103633,2008-73-3,2008-73-3,[H]C1=C([H])C([H])=C(N([H])C(=O)N([H])C2=C([H])C(Cl)=C(Cl)C([H])=C2[H])C([H])=C1[H],"1-(3,4-DICLPHENYL)-3-PHENYLUREA","1-(3,4-dichlorophenyl)-3-phenylurea",C13H10Cl2N2O,8160,DTXSID80290669,O=C(Nc1ccccc1)Nc1cc(Cl)c(Cl)cc1,"InChI=1S/C13H10Cl2N2O/c14-11-7-6-10(8-12(11)15)17-13(18)16-9-4-2-1-3-5-9/h1-8H,(H2,16,17,18)",QQYLEGFGULSHPX-UHFFFAOYSA-N,?,,"HANSCH,C ET AL. (1995)",4.7