ChemID,source_casrn,CAS,SMILES,NAME,preferred_name,iupac,MPID,dsstox_substance_id,Canonical_QSARr,InChI_Code_QSARr,InChI Key_QSARr,Salt_Solvent,Salt_Solvent_ID,Kow Reference,LogP
103248,1146-98-1,1146-98-1,[H]C1=C([H])C([H])=C2C(=O)C([H])(C3=C([H])C([H])=C(Br)C([H])=C3[H])C(=O)C2=C1[H],"1H-INDENE-1,3(2H)-DIONE, 2-(4-BROMOPHENYL)-",Bromindione,"2-(4-bromophenyl)-1H-indene-1,3(2H)-dione",7805,DTXSID8046244,O=C1C(c2ccc(Br)cc2)C(=O)c2ccccc12,"InChI=1S/C15H9BrO2/c16-10-7-5-9(6-8-10)13-14(17)11-3-1-2-4-12(11)15(13)18/h1-8,13H",NPUZIGSOEWMFKK-UHFFFAOYSA-N,?,,SANGSTER (1993),3.76
103249,1146-99-2,1146-99-2,[H]C1=C([H])C([H])=C2C(=O)C([H])(C3=C([H])C([H])=C(Cl)C([H])=C3[H])C(=O)C2=C1[H],"1H-INDENE-1,3(2H)-DIONE, 2-(4-CHLOROPHENYL)-",Clorindione,"2-(4-chlorophenyl)-1H-indene-1,3(2H)-dione",7806,DTXSID0046228,O=C1C(c2ccc(Cl)cc2)C(=O)c2ccccc12,"InChI=1S/C15H9ClO2/c16-10-7-5-9(6-8-10)13-14(17)11-3-1-2-4-12(11)15(13)18/h1-8,13H",NJDUWAXIURWWLN-UHFFFAOYSA-N,?,,SANGSTER (1993),3.61
103251,1151-51-5,1151-51-5,[H]OC1=C(C(=O)N([H])C2=C([H])C([H])=C(Cl)C([H])=C2[H])C([H])=C(Cl)C([H])=C1Cl,"3,5,4'-TRICL SALICYLANILIDE","Benzamide, 3,5-dichloro-N-(4-chlorophenyl)-2-hydroxy-","3,5-dichloro-N-(4-chlorophenyl)-2-hydroxybenzamide",7808,DTXSID10150964,Oc1c(cc(Cl)cc1Cl)C(=O)Nc1ccc(Cl)cc1,"InChI=1S/C13H8Cl3NO2/c14-7-1-3-9(4-2-7)17-13(19)10-5-8(15)6-11(16)12(10)18/h1-6,18H,(H,17,19)",USFZGCVGLNMJPL-UHFFFAOYSA-N,?,,"TERADA,H ET AL. (1988)",5.15
103252,1152-72-3,1152-72-3,[H]C1=C(C#CC#CC([H])([H])[H])SC(C#CC([H])(Cl)C([H])([H])OC(=O)C([H])([H])[H])=C1[H],"3-BUTYN-1-OL, 2-CHLORO-4[5-(1,3-PENTADIYNYL)-2-",PUBCHEM_13051301,C15H11ClO2S,7809,DTXSID00516530,CC(=O)OCC(Cl)C#Cc1ccc(C#CC#CC)[s]1,"InChI=1S/C15H11ClO2S/c1-3-4-5-6-14-9-10-15(19-14)8-7-13(16)11-18-12(2)17/h9-10,13H,11H2,1-2H3",ATXWWAJKDXZDBZ-UHFFFAOYSA-N,?,,"MCLACHLAN,D ET AL. (1986)",4.6
103253,1155-00-6,1155-00-6,[H]C1=C([H])C([H])=C([N+](=O)[O-])C(SSC2=C([H])C([H])=C([H])C([H])=C2[N+](=O)[O-])=C1[H],"DISULFIDE, BIS(2-NITROPHENYL)","Disulfide, bis(2-nitrophenyl)",N-hydroxy-2-[2-(hydroxy-oxidoazaniumyl)phenyl]disulfanylbenzeneamine oxide,7810,DTXSID1061572,[O-][N+](=O)c1ccccc1SSc1ccccc1[N+]([O-])=O,InChI=1S/C12H8N2O4S2/c15-13(16)9-5-1-3-7-11(9)19-20-12-8-4-2-6-10(12)14(17)18/h1-8H,NXCKJENHTITELM-UHFFFAOYSA-N,?,,"HANSCH,C ET AL. (1995)",3.37
103255,1156-19-0,1156-19-0,[H]C1=C([H])C(S(=O)(=O)N([H])C(=O)N([H])N2C([H])([H])C([H])([H])C([H])([H])C([H])([H])C([H])([H])C2([H])[H])=C([H])C([H])=C1C([H])([H])[H],TOLAZAMIDE,Tolazamide,N-(azepan-1-ylcarbamoyl)-4-methylbenzenesulfonamide,7812,DTXSID3021358,Cc1ccc(cc1)S(=O)(=O)NC(=O)NN1CCCCCC1,"InChI=1S/C14H21N3O3S/c1-12-6-8-13(9-7-12)21(19,20)16-14(18)15-17-10-4-2-3-5-11-17/h6-9H,2-5,10-11H2,1H3,(H2,15,16,18)",OUDSBRTVNLOZBN-UHFFFAOYSA-N,?,,SANGSTER (1993),2.69
103256,1159-93-9,1159-93-9,[H]C1=C([H])C([H])=C2C(=C1[H])C(=O)N(C([H])([H])C([H])([H])N(C([H])([H])[H])C([H])([H])[H])C1=C([H])C([H])=C(Cl)C([H])=C1N2[H],CLOBENZEPAM,Clobenzepam,"2-chloro-5-(2-dimethylaminoethyl)-11H-benzo[b][1,4]benzodiazepin-6-one",7813,DTXSID50151218,CN(C)CCN1C(=O)c2ccccc2Nc2cc(Cl)ccc12,"InChI=1S/C17H18ClN3O/c1-20(2)9-10-21-16-8-7-12(18)11-15(16)19-14-6-4-3-5-13(14)17(21)22/h3-8,11,19H,9-10H2,1-2H3",IDWVKNARDDZONS-UHFFFAOYSA-N,?,,SANGSTER (1994),3.73
103257,1163-51-5,1163-51-5,[H]C1=C([H])C([H])=C(C2=NS(=O)(=O)C3=C(C([H])=C(Cl)C(S(=O)(=O)N([H])[H])=C3[H])N2[H])C([H])=C1[H],CHLOROTHIAZIDE-3-PHENYL,"2H-1,2,4-Benzothiadiazine-7-sulfonamide, 6-chloro-3-phenyl-, 1,1-dioxide","6-chloro-1,1-dioxo-3-phenyl-4H-benzo[e][1,2,4]thiadiazine-7-sulfonamide",7814,DTXSID40151343,NS(=O)(=O)c1cc2c(cc1Cl)NC(=NS2(=O)=O)c1ccccc1,"InChI=1S/C13H10ClN3O4S2/c14-9-6-10-12(7-11(9)22(15,18)19)23(20,21)17-13(16-10)8-4-2-1-3-5-8/h1-7H,(H,16,17)(H2,15,18,19)",PQZSAKDDBHCRCN-UHFFFAOYSA-N,?,,SANGSTER (1994),1.4
103261,1182-87-2,NOCAS_871832,[H]OC1([H])C([H])(OC2([H])C([H])([H])C([H])([H])C3(C([H])=O)C([H])(C([H])([H])C([H])([H])C4([H])C3([H])C([H])([H])C([H])([H])C3(C([H])([H])[H])C([H])(C5=C([H])C(=O)OC5([H])[H])C([H])([H])C([H])([H])C43O[H])C2([H])[H])OC([H])(C([H])([H])[H])C([H])(O[H])C1([H])OC([H])([H])[H],PERUVOSIDE,,,7817,DTXSID40871832,CC12CCC3C(CCC4CC(CCC43C=O)OC3OC(C)C(O)C(OC)C3O)C1(O)CCC2C1COC(=O)C=1,"InChI=1S/C30H44O9/c1-16-24(33)26(36-3)25(34)27(38-16)39-19-6-10-29(15-31)18(13-19)4-5-22-21(29)7-9-28(2)20(8-11-30(22,28)35)17-12-23(32)37-14-17/h12,15-16,18-22,24-27,33-35H,4-11,13-14H2,1-3H3",PMTSPAGBAFCORP-UHFFFAOYSA-N,?,,"HANSCH,C ET AL. (1995)",1.05
103262,1185-97-3,1185-97-3,[H]C(=C(Cl)Cl)P(=O)(OC([H])([H])[H])OC([H])([H])[H],OO-DIME DICHLOROVINYLPHOSPHONATE,,,7818,DTXSID30878739,COP(=O)(C=C(Cl)Cl)OC,"InChI=1S/C4H7Cl2O3P/c1-8-10(7,9-2)3-4(5)6/h3H,1-2H3",FVOISMWGIRCHNF-UHFFFAOYSA-N,?,,"HANSCH,C ET AL. (1995)",1.4
103263,1188-09-6,1188-09-6,[H]C([H])=C(C(=O)OC([H])([H])C([H])([H])C([H])([H])OC(=O)C(=C([H])[H])C([H])([H])[H])C([H])([H])[H],"2-PROPENOIC ACID, 2-METHYL-, 1,3-PROPANEDIYL EST",,,7819,DTXSID20876567,CC(=C)C(=O)OCCCOC(=O)C(C)=C,"InChI=1S/C11H16O4/c1-8(2)10(12)14-6-5-7-15-11(13)9(3)4/h1,3,5-7H2,2,4H3",HTWRFCRQSLVESJ-UHFFFAOYSA-N,?,,SANGSTER (1993),1.86
103266,1193-02-8,1193-02-8,[H]SC1=C([H])C([H])=C(N([H])[H])C([H])=C1[H],4-AMINOBENZENETHIOL,4-Aminothiophenol,4-AMINOBENZENETHIOL,7821,DTXSID1074466,Nc1ccc(S)cc1,"InChI=1S/C6H7NS/c7-5-1-3-6(8)4-2-5/h1-4,8H,7H2",WCDSVWRUXWCYFN-UHFFFAOYSA-N,?,,"HANSCH,C ET AL. (1995)",1.31
103267,1193-62-0,1193-62-0,[H]C1=C([H])N([H])C(C(=O)OC([H])([H])[H])=C1[H],METHYL PYRROLE-2-CARBOXYLATE,Methyl pyrrole-2-carboxylate,methyl 1H-pyrrole-2-carboxylate,7822,DTXSID50152407,COC(=O)c1ccc[nH]1,"InChI=1S/C6H7NO2/c1-9-6(8)5-3-2-4-7-5/h2-4,7H,1H3",VONGYFFEWFJHNP-UHFFFAOYSA-N,?,,"HANSCH,C ET AL. (1995)",1.17
103268,1193-82-4,18453-46-8,[H]C1=C([H])C([H])=C(S(=O)C([H])([H])[H])C([H])=C1[H],METHYL PHENYL SULFOXIDE,"Benzene, [(S)-methylsulfinyl]-",C7H8OS,7823,DTXSID70452895,CS(=O)c1ccccc1,"InChI=1S/C7H8OS/c1-9(8)7-5-3-2-4-6-7/h2-6H,1H3",JXTGICXCHWMCPM-UHFFFAOYSA-N,?,,"HANSCH,C ET AL. (1995)",0.55
103270,1194-98-5,1194-98-5,[H]OC1=C([H])C([H])=C(O[H])C(C([H])=O)=C1[H],"2,5-Dihydroxybenzaldehyde","Benzaldehyde, 2,5-dihydroxy-","2,5-Dihydroxybenzaldehyde",7825,DTXSID1061601,Oc1cc(C=O)c(O)cc1,"InChI=1S/C7H6O3/c8-4-5-3-6(9)1-2-7(5)10/h1-4,9-10H",CLFRCXCBWIQVRN-UHFFFAOYSA-N,?,,"JIN,LJ ET AL. (1998)",0.54
103272,1195-14-8,1195-14-8,[H]C1=C([H])C([H])=C2C([H])=C(C([H])([H])[H])SC2=C1[H],2-Methylbenzo[b]thiophene,2-Methylbenzo(b)thiophene,2-methyl-1-benzothiophene,7826,DTXSID80152470,Cc1cc2ccccc2[s]1,"InChI=1S/C9H8S/c1-7-6-8-4-2-3-5-9(8)10-7/h2-6H,1H3",BLZKSRBAQDZAIX-UHFFFAOYSA-N,?,,"ANDERSSON,JT & SCHRADER,W (1999)",3.71
103273,1195-16-0,1195-16-0,[H]N(C(=O)C([H])([H])[H])C1([H])C(=O)SC([H])([H])C1([H])[H],N-(TETRAHYDRO-2-OXO-3-THIENYL)ACETAMIDE,Citiolone,N-(2-oxotetrahydrothiophen-3-yl)acetamide,7827,DTXSID0045888,CC(=O)NC1CCSC1=O,"InChI=1S/C6H9NO2S/c1-4(8)7-5-2-3-10-6(5)9/h5H,2-3H2,1H3,(H,7,8)",NRFJZTXWLKPZAV-UHFFFAOYSA-N,?,,POMONA (1987),-0.35
103275,1196-57-2,1196-57-2,[H]OC1=NC2=C([H])C([H])=C([H])C([H])=C2N=C1[H],QUINOXALINE-2-ONE,2(1H)-Quinoxalinone,,7829,DTXSID6061604,Oc1c[n]c2ccccc2[n]1,"InChI=1S/C8H6N2O/c11-8-5-9-6-3-1-2-4-7(6)10-8/h1-5H,(H,10,11)",FFRYUAVNPBUEIC-UHFFFAOYSA-N,?,,"HANSCH,C ET AL. (1995)",0.8
103276,1197-19-9,1197-19-9,[H]C1=C([H])C(N(C([H])([H])[H])C([H])([H])[H])=C([H])C([H])=C1C#N,"P-CYANO-N,N-DIMETHYLANILINE","Benzonitrile, 4-(dimethylamino)-",4-Dimethylaminobenzonitrile,7830,DTXSID4073255,CN(C)c1ccc(cc1)C#N,"InChI=1S/C9H10N2/c1-11(2)9-5-3-8(7-10)4-6-9/h3-6H,1-2H3",JYMNQRQQBJIMCV-UHFFFAOYSA-N,?,,"HANSCH,C ET AL. (1995)",2.2
103277,1197-22-4,1197-22-4,[H]C1=C([H])C([H])=C(N([H])S(=O)(=O)C([H])([H])[H])C([H])=C1[H],N-PHENYL METHANESULFONAMIDE,"Methanesulfonamide, N-phenyl-",N-Phenylmethanesulfonamide,7831,DTXSID6061606,CS(=O)(=O)Nc1ccccc1,"InChI=1S/C7H9NO2S/c1-11(9,10)8-7-5-3-2-4-6-7/h2-6,8H,1H3",LBTPIFQNEKOAIM-UHFFFAOYSA-N,?,,"HANSCH,C ET AL. (1995)",0.95
103280,1198-55-6,1198-55-6,[H]OC1=C(Cl)C(Cl)=C(Cl)C(Cl)=C1O[H],"TETRACHLORO-1,2-BENZENEDIOL",Tetrachlorocatechol,"3,4,5,6-tetrachlorobenzene-1,2-diol",7833,DTXSID4022151,Oc1c(Cl)c(Cl)c(Cl)c(Cl)c1O,InChI=1S/C6H2Cl4O2/c7-1-2(8)4(10)6(12)5(11)3(1)9/h11-12H,RRBMVWQICIXSEO-UHFFFAOYSA-N,?,,"HANSCH,C ET AL. (1995)",4.29
103281,1199-77-5,NOCAS_870863,[H]OC(=O)/C(=C(/[H])C1=C([H])C([H])=C([H])C([H])=C1[H])C([H])([H])[H],ALPHA-METHYLCINNAMIC ACID,,,7834,DTXSID20870863,CC(=Cc1ccccc1)C(O)=O,"InChI=1S/C10H10O2/c1-8(10(11)12)7-9-5-3-2-4-6-9/h2-7H,1H3,(H,11,12)/b8-7-",XNCRUNXWPDJHGV-FPLPWBNLSA-N,?,,SANGSTER (1993),2.6
103282,1199-98-0,1199-98-0,[H]C1=C([H])C([H])=C(C([H])([H])C([H])([H])C([H])([H])C(=O)N([H])[H])C([H])=C1[H],"BUTRAMIDE, 4-PHENYL",4-phenylbutanamide,C10H13NO,7835,DTXSID50294735,NC(=O)CCCc1ccccc1,"InChI=1S/C10H13NO/c11-10(12)8-4-7-9-5-2-1-3-6-9/h1-3,5-6H,4,7-8H2,(H2,11,12)",LEPWUMPXISBPIB-UHFFFAOYSA-N,?,,"HANSCH,C ET AL. (1995)",1.41
103284,1200-06-2,1200-06-2,[H]C1=C([H])C(OC([H])([H])[H])=C([H])C([H])=C1OC(=O)C([H])([H])[H],4-METHOXYPHENYL ACETATE,"Phenol, p-methoxy-, acetate (8CI)",(4-methoxyphenyl) acetate,7837,DTXSID50152649,CC(=O)Oc1ccc(cc1)OC,"InChI=1S/C9H10O3/c1-7(10)12-9-5-3-8(11-2)4-6-9/h3-6H,1-2H3",YAPCNXGBNRDBIW-UHFFFAOYSA-N,?,,"HANSCH,C ET AL. (1995)",1.54
103285,1201-25-8,64059-36-5,[H]OC(=O)C1=C([H])C([H])=C2C([H])=C([H])C([H])=C([H])C([H])=C12,1-AZULENE CARBOXYLIC ACID,Azulenecarboxylic acid,azulene-1-carboxylic acid,7838,DTXSID90214250,OC(=O)c1ccc2cccccc21,"InChI=1S/C11H8O2/c12-11(13)10-7-6-8-4-2-1-3-5-9(8)10/h1-7H,(H,12,13)",HGLFWLLFPGIKOT-UHFFFAOYSA-N,?,,"HANSCH,C ET AL. (1995)",2.88
103286,1201-56-5,552-79-4,[H]OC([H])(C1=C([H])C([H])=C([H])C([H])=C1[H])C([H])(N(C([H])([H])[H])C([H])([H])[H])C([H])([H])[H],"BENZENEMETHANOL, _-[1-(DIMETHYLAMINO)ETHYL]-, (R",Methylephedrine,"(1R,2S)-2-(dimethylamino)-1-phenylpropan-1-ol",7839,DTXSID7045992,CC(C(O)c1ccccc1)N(C)C,"InChI=1S/C11H17NO/c1-9(12(2)3)11(13)10-7-5-4-6-8-10/h4-9,11,13H,1-3H3",FMCGSUUBYTWNDP-UHFFFAOYSA-N,?,,SANGSTER (1994),1.7
103288,1202-32-0,1202-32-0,[H]C1=C([H])C([H])=C(/C([H])=C(/[N+](=O)[O-])C([H])([H])C([H])([H])[H])C([H])=C1[H],B-ETHYL-B-NITROSTYRENE,1202-32-0,C10H11NO2,7841,DTXSID90417885,CCC(=Cc1ccccc1)[N+]([O-])=O,"InChI=1S/C10H11NO2/c1-2-10(11(12)13)8-9-6-4-3-5-7-9/h3-8H,2H2,1H3/b10-8+",ZWVYQTKQQAYACO-CSKARUKUSA-N,?,,"HANSCH,C ET AL. (1995)",2.86
103289,1202-55-7,1202-55-7,[H]C1=C([H])C([H])=C(C([H])([H])C([H])([H])C([H])([H])C([H])([H])N(C([H])([H])[H])C([H])([H])[H])C([H])=C1[H],"4-PHENYL-N,N-DIMETHYLBUTYLAMINE",,,7842,DTXSID20876966,CN(C)CCCCc1ccccc1,"InChI=1S/C12H19N/c1-13(2)11-7-6-10-12-8-4-3-5-9-12/h3-5,8-9H,6-7,10-11H2,1-2H3",VTFLIYPNOKEFRW-UHFFFAOYSA-N,?,,BIOBYTE STARLIST (2009),3.15
103290,1205-08-9,1205-08-9,[H]C1=C([H])C([H])=C(C(=O)N([H])C([H])([H])C(=O)OC([H])([H])[H])C([H])=C1[H],METHYL N-BENZOGLYCINE,"Glycine, N-benzoyl-, methyl ester",methyl 2-(benzoylamino)acetate,7843,DTXSID90152880,COC(=O)CNC(=O)c1ccccc1,"InChI=1S/C10H11NO3/c1-14-9(12)7-11-10(13)8-5-3-2-4-6-8/h2-6H,7H2,1H3,(H,11,13)",XTKVNQKOTKPCKM-UHFFFAOYSA-N,?,,"HANSCH,C ET AL. (1995)",0.82
103292,1207-63-2,1207-63-2,[H]C1=C([H])C2=C(C([H])=C1Cl)S(=O)(=O)N([H])C(C([H])([H])C([H])([H])[H])=N2,124-BENZTHIADIZ-1-O2-3-ET-7-CL,,,7845,DTXSID20879750,CCC1NS(=O)(=O)c2cc(Cl)ccc2N=1,"InChI=1S/C9H9ClN2O2S/c1-2-9-11-7-4-3-6(10)5-8(7)15(13,14)12-9/h3-5H,2H2,1H3,(H,11,12)",TYLDGLIBXIXDBH-UHFFFAOYSA-N,?,,"HANSCH,C ET AL. (1995)",1.62
103293,1209-98-9,NOCAS_862601,[H]C1=C([H])C([H])=C(C2([H])C([H])(N([H])C([H])([H])C([H])([H])[H])C3([H])C([H])([H])C([H])([H])C2([H])C3([H])[H])C([H])=C1[H],FENCAMFAMINE,,,7846,DTXSID60862601,CCNC1C(C2CC1CC2)c1ccccc1,"InChI=1S/C15H21N/c1-2-16-15-13-9-8-12(10-13)14(15)11-6-4-3-5-7-11/h3-7,12-16H,2,8-10H2,1H3",IKFBPFGUINLYQI-UHFFFAOYSA-N,?,,SANGSTER (1994),3.2
103294,1210-12-4,1210-12-4,[H]C1=C([H])C([H])=C2C(C#N)=C3C([H])=C([H])C([H])=C([H])C3=C([H])C2=C1[H],9-ANTHRACENECARBONITRILE,9-Cyanoanthracene,anthracene-9-carbonitrile,7847,DTXSID3049209,N#Cc1c2ccccc2cc2ccccc21,InChI=1S/C15H9N/c16-10-15-13-7-3-1-5-11(13)9-12-6-2-4-8-14(12)15/h1-9H,KEQZHLAEKAVZLY-UHFFFAOYSA-N,?,,"HANSCH,C ET AL. (1995)",4.26
103296,1214-32-0,1214-32-0,[H]C1=C2C3=C([H])C([H])=C([N+](=O)[O-])C([H])=C3C([H])([H])C2=C([H])C(N([H])[H])=C1[H],"9H-FLUOREN-2-AMINE, 7-NITRO-","Fluoren-2-amine, 7-nitro-",7-nitro-9H-fluoren-2-amine,7849,DTXSID70153259,Nc1cc2Cc3cc(ccc3-c2cc1)[N+]([O-])=O,"InChI=1S/C13H10N2O2/c14-10-1-3-12-8(6-10)5-9-7-11(15(16)17)2-4-13(9)12/h1-4,6-7H,5,14H2",IJMROTSXJSMTPW-UHFFFAOYSA-N,?,,"DEBNATH,AK ET AL. (1991)",3.06
103297,1214-39-7,1214-39-7,[H]C1=NC2=C(N([H])C([H])([H])C3=C([H])C([H])=C([H])C([H])=C3[H])N([H])C([H])=NC2=N1,"1H-PURIN-6-AMINE, N-(PHENYLMETHYL)-",N-Benzyladenine,N-benzyl-1H-purin-6-amine,7850,DTXSID7032630,C(Nc1[nH]c[n]c2[n]c[n]c21)c1ccccc1,"InChI=1S/C12H11N5/c1-2-4-9(5-3-1)6-13-11-10-12(15-7-14-10)17-8-16-11/h1-5,7-8H,6H2,(H2,13,14,15,16,17)",NWBJYWHLCVSVIJ-UHFFFAOYSA-N,?,,"SHAFER,WE (1990)",1.57
103298,1216-40-6,1216-40-6,[H]C([H])=C(Br)C([H])([H])C1(C([H])(C([H])([H])[H])C([H])([H])C([H])([H])C([H])([H])[H])C(=O)N([H])C(=O)N([H])C1=O,"BARBITURIC ACID,5(1-MEBU),5-B-BROMALLYL",,,7851,DTXSID90874338,CCCC(C)C1(CC(=C)Br)C(=O)NC(=O)NC1=O,"InChI=1S/C12H17BrN2O3/c1-4-5-7(2)12(6-8(3)13)9(16)14-11(18)15-10(12)17/h7H,3-6H2,1-2H3,(H2,14,15,16,17,18)",ZGVCLZRQOUEZHG-UHFFFAOYSA-N,?,,"HANSCH,C ET AL. (1995)",2.09
103300,1220-83-3,1220-83-3,[H]C1=NC(OC([H])([H])[H])=C([H])C(N([H])S(=O)(=O)C2=C([H])C([H])=C(N([H])[H])C([H])=C2[H])=N1,"BENZENESULFONAMIDE, 4-AMINO-N-(6-METHOXY-4-PYRIM",Sulfamonomethoxine,4-amino-N-(6-methoxypyrimidin-4-yl)benzenesulfonamide,7853,DTXSID8045351,COc1cc(NS(=O)(=O)c2ccc(N)cc2)[n]c[n]1,"InChI=1S/C11H12N4O3S/c1-18-11-6-10(13-7-14-11)15-19(16,17)9-4-2-8(12)3-5-9/h2-7H,12H2,1H3,(H,13,14,15)",WMPXPUYPYQKQCX-UHFFFAOYSA-N,?,,SANGSTER (1994),0.7
103301,1222-05-5,1222-05-5,[H]C1=C2C(=C([H])C3=C1C(C([H])([H])[H])(C([H])([H])[H])C([H])(C([H])([H])[H])C3(C([H])([H])[H])C([H])([H])[H])C([H])(C([H])([H])[H])C([H])([H])OC2([H])[H],Galaxolide,"Cyclopenta[g]-2-benzopyran, 1,3,4,6,7,8-hexahydro-4,6,6,7,8,8-hexamethyl-","4,6,6,7,8,8-hexamethyl-1,3,4,6,7,8-hexahydrocyclopenta[g]isochromene",7854,DTXSID8027373,CC1(C)C(C)C(C)(C)c2cc3COCC(C)c3cc12,"InChI=1S/C18H26O/c1-11-9-19-10-13-7-15-16(8-14(11)13)18(5,6)12(2)17(15,3)4/h7-8,11-12H,9-10H2,1-6H3",ONKNPOPIGWHAQC-UHFFFAOYSA-N,?,,US EPA (2004),5.9
103302,1224-47-1,1224-47-1,[H]C1=C([H])C(S(=O)(=O)N([H])C(=O)N([H])N2C([H])([H])C([H])([H])C([H])([H])C([H])([H])C2([H])[H])=C([H])C([H])=C1Cl,CHLOROPENTAZIDE,,,7855,DTXSID50876858,O=C(NN1CCCCC1)NS(=O)(=O)c1ccc(Cl)cc1,"InChI=1S/C12H16ClN3O3S/c13-10-4-6-11(7-5-10)20(18,19)15-12(17)14-16-8-2-1-3-9-16/h4-7H,1-3,8-9H2,(H2,14,15,17)",KFFFIENCGKJNLC-UHFFFAOYSA-N,?,,BIOBYTE (1995),0.84
103304,1226-52-4,1226-52-4,[H]OC1=C([H])C([H])=C(C2=C(N([H])[H])N=C3N=C(N([H])[H])N=C(N([H])[H])C3=N2)C([H])=C1[H],"2,4,7-PTERIDINETRIAMINE, 6-(4-HYDROXYPHENYL)-",,,7857,DTXSID00876722,Nc1[n]c(N)[n]c2[n]c(N)c([n]c12)-c1ccc(O)cc1,"InChI=1S/C12H11N7O/c13-9-7(5-1-3-6(20)4-2-5)16-8-10(14)18-12(15)19-11(8)17-9/h1-4,20H,(H6,13,14,15,17,18,19)",QNJVMSASTUDLGC-UHFFFAOYSA-N,?,,SANGSTER (1993),0.92
103305,1228-19-9,1228-19-9,[H]C1=C([H])C(S(=O)(=O)N([H])C(=O)N([H])N2C([H])([H])C([H])([H])C([H])([H])C([H])([H])C([H])([H])C2([H])[H])=C([H])C([H])=C1Cl,Azepinamide,Glypinamide,1-(azepan-1-yl)-3-(4-chlorophenyl)sulfonylurea,7858,DTXSID70153719,O=C(NN1CCCCCC1)NS(=O)(=O)c1ccc(Cl)cc1,"InChI=1S/C13H18ClN3O3S/c14-11-5-7-12(8-6-11)21(19,20)16-13(18)15-17-9-3-1-2-4-10-17/h5-8H,1-4,9-10H2,(H2,15,16,18)",RHQSNARBXHRBNP-UHFFFAOYSA-N,?,,"HANSCH,C ET AL. (1995)",1.64
103306,1241-94-7,1241-94-7,[H]C1=C([H])C([H])=C(OP(=O)(OC2=C([H])C([H])=C([H])C([H])=C2[H])OC([H])([H])C([H])(C([H])([H])C([H])([H])[H])C([H])([H])C([H])([H])C([H])([H])C([H])([H])[H])C([H])=C1[H],2-ETHYLHEXYL DIPHENYL PHOSPHATE,2-Ethylhexyl diphenyl phosphate,2-ethylhexyl diphenyl phosphate,7859,DTXSID1025300,CCC(COP(=O)(Oc1ccccc1)Oc1ccccc1)CCCC,"InChI=1S/C20H27O4P/c1-3-5-12-18(4-2)17-22-25(21,23-19-13-8-6-9-14-19)24-20-15-10-7-11-16-20/h6-11,13-16,18H,3-5,12,17H2,1-2H3",CGSLYBDCEGBZCG-UHFFFAOYSA-N,?,,"HANSCH,C ET AL. (1995)",5.73
103312,1401-69-0,1401-69-0,[H]OC1([H])C([H])(C([H])([H])[H])OC([H])(OC([H])([H])C2([H])/C([H])=C(C([H])([H])[H])\C([H])=C(\[H])C(=O)C([H])(C([H])([H])[H])C([H])([H])C([H])(C([H])([H])C([H])=O)C([H])(OC3([H])OC([H])(C([H])([H])[H])C([H])(OC4([H])OC([H])(C([H])([H])[H])C([H])(O[H])C(O[H])(C([H])([H])[H])C4([H])[H])C([H])(N(C([H])([H])[H])C([H])([H])[H])C3([H])O[H])C([H])(C([H])([H])[H])C([H])(O[H])C([H])([H])C(=O)OC2([H])C([H])([H])C([H])([H])[H])C([H])(OC([H])([H])[H])C1([H])OC([H])([H])[H],TYLOSIN,Tylosin,"[(2R,4E,6E,9R,11R,12S,13S,14R)-12-{[3,6-dideoxy-4-O-(2,6-dideoxy-3-C-methyl-alpha-L-ribo-hexopyranosyl)-3-(dimethylamino)-beta-D-glucopyranosyl]oxy}-2-ethyl-14-hydroxy-5,9,13-trimethyl-8,16-dioxo-11-(2-oxoethyl)oxacyclohexadeca-4,6-dien-3-yl]methyl 6-deoxy-2,3-di-O-methyl-beta-D-allopyranoside",7861,DTXSID3043996,CC1C=CC(=O)C(C)CC(CC=O)C(OC2OC(C)C(OC3CC(C)(O)C(O)C(C)O3)C(C2O)N(C)C)C(C)C(O)CC(=O)OC(CC)C(COC2OC(C)C(O)C(OC)C2OC)C=1,"InChI=1S/C46H77NO17/c1-13-33-30(22-58-45-42(57-12)41(56-11)37(52)26(5)60-45)18-23(2)14-15-31(49)24(3)19-29(16-17-48)39(25(4)32(50)20-34(51)62-33)64-44-38(53)36(47(9)10)40(27(6)61-44)63-35-21-46(8,55)43(54)28(7)59-35/h14-15,17-18,24-30,32-33,35-45,50,52-55H,13,16,19-22H2,1-12H3/b15-14-,23-18-",WBPYTXDJUQJLPQ-RZGVLIMISA-N,?,,"MCFARLAND,JW ET AL. (1997)",1.63
103313,1404-64-4,1404-64-4,[H]OC([H])([H])C([H])(N([H])C(=O)/C([H])=C(\[H])C1=C(C([H])([H])[H])N([H])C(=O)N([H])C1=O)C([H])([H])S(=O)C([H])([H])SC([H])([H])[H],SPARSOMYCIN,,,7862,DTXSID40874469,CC1NC(=O)NC(=O)C=1C=CC(=O)NC(CO)CS(=O)CSC,"InChI=1S/C13H19N3O5S2/c1-8-10(12(19)16-13(20)14-8)3-4-11(18)15-9(5-17)6-23(21)7-22-2/h3-4,9,17H,5-7H2,1-2H3,(H,15,18)(H2,14,16,19,20)/b4-3+",XKLZIVIOZDNKEQ-ONEGZZNKSA-N,?,,"HANSCH,C ET AL. (1995)",-1.71
103314,1405-86-3,1405-86-3,[H]OC(=O)C1([H])OC([H])(OC2([H])C([H])(OC3([H])C([H])([H])C([H])([H])C4(C([H])([H])[H])C5([H])C(=O)C([H])=C6C7([H])C([H])([H])C(C(=O)O[H])(C([H])([H])[H])C([H])([H])C([H])([H])C7(C([H])([H])[H])C([H])([H])C([H])([H])C6(C([H])([H])[H])C5(C([H])([H])[H])C([H])([H])C([H])([H])C4([H])C3(C([H])([H])[H])C([H])([H])[H])OC([H])(C(=O)O[H])C([H])(O[H])C2([H])O[H])C([H])(O[H])C([H])(O[H])C1([H])O[H],GLYCYRRHIZIC ACID,Glycyrrhizin,"(3beta)-30-hydroxy-11,30-dioxoolean-12-en-3-yl 2-O-beta-D-glucopyranuronosyl-alpha-D-glucopyranosiduronic acid",7863,DTXSID8047006,CC1(C)C2CCC3(C)C(C(=O)C=C4C5CC(C)(CCC5(C)CCC34C)C(O)=O)C2(C)CCC1OC1OC(C(O)C(O)C1OC1OC(C(O)C(O)C1O)C(O)=O)C(O)=O,"InChI=1S/C42H62O16/c1-37(2)21-8-11-42(7)31(20(43)16-18-19-17-39(4,36(53)54)13-12-38(19,3)14-15-41(18,42)6)40(21,5)10-9-22(37)55-35-30(26(47)25(46)29(57-35)33(51)52)58-34-27(48)23(44)24(45)28(56-34)32(49)50/h16,19,21-31,34-35,44-48H,8-15,17H2,1-7H3,(H,49,50)(H,51,52)(H,53,54)",LPLVUJXQOOQHMX-UHFFFAOYSA-N,?,,SANGSTER (1993),2.8
103316,1427-45-8,1427-45-8,[H]C1=C([H])C([H])=C(C(F)(F)F)C(C2=NC([H])([H])C(=O)N([H])C3=C2C([H])=C([N+](=O)[O-])C([H])=C3[H])=C1[H],"1,4-BENZODIAZPN2-ON,5(2CF3PH)7NO2",,,7865,DTXSID70877928,[O-][N+](=O)c1cc2C(=NCC(=O)Nc2cc1)c1ccccc1C(F)(F)F,"InChI=1S/C16H10F3N3O3/c17-16(18,19)12-4-2-1-3-10(12)15-11-7-9(22(24)25)5-6-13(11)21-14(23)8-20-15/h1-7H,8H2,(H,21,23)",YXJKYWVZADCRMD-UHFFFAOYSA-N,?,,"HANSCH,C ET AL. (1995)",2.51
103317,1431-39-6,1431-39-6,[H]C1=C([H])C2=C(N(C([H])([H])[H])C([H])([H])[H])C([H])=C([H])C([H])=C2C(S(=O)(=O)N([H])[H])=C1[H],1-DIME AMINO-5-SO2NH2-NAPHTHALENE,5-Dimethylaminonaphthalene-1-sulfonamide,5-Dimethylaminonaphthalene-1-sulfonamide,7866,DTXSID70162306,CN(C)c1cccc2c(cccc21)S(N)(=O)=O,"InChI=1S/C12H14N2O2S/c1-14(2)11-7-3-6-10-9(11)5-4-8-12(10)17(13,15)16/h3-8H,1-2H3,(H2,13,15,16)",TYNBFJJKZPTRKS-UHFFFAOYSA-N,?,,"HANSCH,C ET AL. (1995)",2.01
103318,1436-34-6,NOCAS_870872,[H]C([H])([H])C([H])([H])C([H])([H])C([H])([H])C1([H])OC1([H])[H],"OXIRANE, BUTYL-",,,7867,DTXSID10870872,CCCCC1CO1,"InChI=1S/C6H12O/c1-2-3-4-6-5-7-6/h6H,2-5H2,1H3",WHNBDXQTMPYBAT-UHFFFAOYSA-N,?,,"DENEER,JW ET AL. (1988)",1.95