ChemID,source_casrn,CAS,SMILES,NAME,preferred_name,iupac,MPID,dsstox_substance_id,Canonical_QSARr,InChI_Code_QSARr,InChI Key_QSARr,Salt_Solvent,Salt_Solvent_ID,Kow Reference,LogP
101934,455-38-9,455-38-9,[H]OC(=O)C1=C([H])C([H])=C([H])C(F)=C1[H],M-FLUOROBENZOIC ACID,"Benzoic acid, 3-fluoro-",3-Fluorobenzoic acid,6550,DTXSID4060020,OC(=O)c1cccc(F)c1,"InChI=1S/C7H5FO2/c8-6-3-1-2-5(4-6)7(9)10/h1-4H,(H,9,10)",MXNBDFWNYRNIBH-UHFFFAOYSA-N,?,,"HANSCH,C ET AL. (1995)",2.15
101935,455-87-8,455-87-8,[H]OC(=O)C1=C([H])C([H])=C(N([H])[H])C(F)=C1[H],"BENZOIC ACID, 4-AMINO-3-FLUORO-","Benzoic acid, 4-amino-3-fluoro-",4-Amino-3-fluorobenzoic acid,6551,DTXSID70196540,Nc1ccc(cc1F)C(O)=O,"InChI=1S/C7H6FNO2/c8-5-3-4(7(10)11)1-2-6(5)9/h1-3H,9H2,(H,10,11)",JSKXHTHMCCDEGD-UHFFFAOYSA-N,?,,SANGSTER (1994),1.41
101936,456-22-4,456-22-4,[H]OC(=O)C1=C([H])C([H])=C(F)C([H])=C1[H],P-FLUOROBENZOIC ACID,"Benzoic acid, 4-fluoro-",4-Fluorobenzoic acid,6552,DTXSID9060023,OC(=O)c1ccc(F)cc1,"InChI=1S/C7H5FO2/c8-6-3-1-5(2-4-6)7(9)10/h1-4H,(H,9,10)",BBYDXOIZLAWGSL-UHFFFAOYSA-N,?,,"HANSCH,C ET AL. (1995)",2.07
101938,456-49-5,456-49-5,[H]C1=C([H])C(OC([H])([H])[H])=C([H])C(F)=C1[H],M-FLUOROANISOLE,3-Fluoroanisole,1-FLUORO-3-METHOXYBENZENE,6554,DTXSID90196567,COc1cccc(F)c1,"InChI=1S/C7H7FO/c1-9-7-4-2-3-6(8)5-7/h2-5H,1H3",MFJNOXOAIFNSBX-UHFFFAOYSA-N,?,,"DUNN,WJ ET AL. (1983)",2.36
101939,456-55-3,456-55-3,[H]C1=C([H])C([H])=C(OC(F)(F)F)C([H])=C1[H],TRIFLUOROMETHOXYBENZENE,(Trifluoromethoxy)benzene,trifluoromethoxybenzene,6555,DTXSID4060028,FC(F)(F)Oc1ccccc1,"InChI=1S/C7H5F3O/c8-7(9,10)11-6-4-2-1-3-5-6/h1-5H",GQHWSLKNULCZGI-UHFFFAOYSA-N,?,,"HANSCH,C ET AL. (1995)",3.17
101940,456-56-4,456-56-4,[H]C1=C([H])C([H])=C(SC(F)(F)F)C([H])=C1[H],TRIFLUOROMETHYLTHIOBENZENE,((Trifluoromethyl)thio)benzene,trifluoromethylsulfanylbenzene,6556,DTXSID50196568,FC(F)(F)Sc1ccccc1,"InChI=1S/C7H5F3S/c8-7(9,10)11-6-4-2-1-3-5-6/h1-5H",YQQKTCBMKQQOSM-UHFFFAOYSA-N,?,,"HANSCH,C ET AL. (1995)",3.57
101942,458-24-2,458-24-2,[H]C1=C([H])C(C(F)(F)F)=C([H])C(C([H])([H])C([H])(N([H])C([H])([H])C([H])([H])[H])C([H])([H])[H])=C1[H],FENFLURAMINE,Fenfluramine,N-ethyl-1-[3-(trifluoromethyl)phenyl]propan-2-amine,6558,DTXSID4023044,CCNC(C)Cc1cc(ccc1)C(F)(F)F,"InChI=1S/C12H16F3N/c1-3-16-9(2)7-10-5-4-6-11(8-10)12(13,14)15/h4-6,8-9,16H,3,7H2,1-2H3",DBGIVFWFUFKIQN-UHFFFAOYSA-N,?,,SANGSTER (1993),3.36
101943,458-92-4,458-92-4,[H]C1=C([H])C([H])=C(OC([H])(F)F)C([H])=C1[H],DIFLUOROMETHOXYBENZENE,"alpha,alpha-Difluoroanisole",difluoromethoxybenzene,6559,DTXSID90196623,FC(F)Oc1ccccc1,"InChI=1S/C7H6F2O/c8-7(9)10-6-4-2-1-3-5-6/h1-5,7H",LMVBQQAXGZVBFH-UHFFFAOYSA-N,?,,"HANSCH,C ET AL. (1995)",2.44
101944,,459-23-4,[H]C1=C([H])C(C([H])([H])N=O)=C([H])C([H])=C1F,P-FLUOROBENZALDOXIME,,,6560,,O=NCc1ccc(F)cc1,"InChI=1S/C7H6FNO/c8-7-3-1-6(2-4-7)5-9-10/h1-4H,5H2",LYUNTQMDKDIIKH-UHFFFAOYSA-N,?,,"HANSCH,C ET AL. (1995)",2.03
101946,459-56-3,459-56-3,[H]OC([H])([H])C1=C([H])C([H])=C(F)C([H])=C1[H],"BENZENEMETHANOL, 4-FLUORO-","Benzenemethanol, 4-fluoro-",(4-fluorophenyl)methanol,6562,DTXSID4075409,OCc1ccc(F)cc1,"InChI=1S/C7H7FO/c8-7-3-1-6(5-9)2-4-7/h1-4,9H,5H2",GEZMEIHVFSWOCA-UHFFFAOYSA-N,?,,"EL TAYAR,N ET AL. (1991)",1.36
101947,459-57-4,459-57-4,[H]C(=O)C1=C([H])C([H])=C(F)C([H])=C1[H],"BENZALDEHYDE, 4-FLUORO-",4-Fluorobenzaldehyde,4-fluorobenzaldehyde,6563,DTXSID0038756,O=Cc1ccc(F)cc1,InChI=1S/C7H5FO/c8-7-3-1-6(5-9)2-4-7/h1-5H,UOQXIWFBQSVDPP-UHFFFAOYSA-N,?,,"BAZACO,JF & COCA,CM (1989)",1.54
101948,459-60-9,459-60-9,[H]C1=C([H])C(OC([H])([H])[H])=C([H])C([H])=C1F,P-FLUOROANISOLE,p-Fluoroanisole,1-Fluoro-4-methoxybenzene,6564,DTXSID3060033,COc1ccc(F)cc1,"InChI=1S/C7H7FO/c1-9-7-4-2-6(8)3-5-7/h2-5H,1H3",VIPWUFMFHBIKQI-UHFFFAOYSA-N,?,,"DUNN,WJ ET AL. (1983)",2.26
101950,460-19-5,460-19-5,N#CC#N,CYANOGEN,Cyanogen,ethanedinitrilato,6566,DTXSID1023992,N#CC#N,InChI=1S/C2N2/c3-1-2-4,JMANVNJQNLATNU-UHFFFAOYSA-N,?,,"HANSCH,C ET AL. (1995)",0.07
101951,461-18-7,461-18-7,[H]OC([H])([H])C([H])([H])C([H])([H])C(F)(F)F,"4,4,4-TRIFLUORO-1-BUTANOL","4,4,4-Trifluorobutanol","4,4,4-trifluorobutan-1-ol",6567,DTXSID40196714,OCCCC(F)(F)F,"InChI=1S/C4H7F3O/c5-4(6,7)2-1-3-8/h8H,1-3H2",VKRFUGHXKNNIJO-UHFFFAOYSA-N,?,,"MULLER,N (1986)",0.9
101952,461-58-5,461-58-5,[H]/N=C(\N([H])[H])N([H])C#N,2-CYANOGUANIDINE,Cyanoguanidine,1-cyanoguanidine,6568,DTXSID1020354,NC(=N)NC#N,"InChI=1S/C2H4N4/c3-1-6-2(4)5/h(H4,4,5,6)",QGBSISYHAICWAH-UHFFFAOYSA-N,?,,"HANSCH,C ET AL. (1995)",-1.15
101954,461-78-9,461-78-9,[H]C1=C([H])C(C([H])([H])C(N([H])[H])(C([H])([H])[H])C([H])([H])[H])=C([H])C([H])=C1Cl,CHLORPHENTERMINE,Chlorphentermine,1-(4-chlorophenyl)-2-methylpropan-2-amine,6570,DTXSID0022806,CC(C)(N)Cc1ccc(Cl)cc1,"InChI=1S/C10H14ClN/c1-10(2,12)7-8-3-5-9(11)6-4-8/h3-6H,7,12H2,1-2H3",ZCKAMNXUHHNZLN-UHFFFAOYSA-N,?,,"HANSCH,C ET AL. (1995)",2.6
101955,461-89-2,461-89-2,[H]C1=NN([H])C(=O)N([H])C1=O,"1,2,4-TRIAZINE-3,5(2H,4H)-DIONE","1,2,4-Triazine-3,5(2H,4H)-dione","2H-1,2,4-triazine-3,5-dione",6571,DTXSID2060042,O=C1NN=CC(=O)N1,"InChI=1S/C3H3N3O2/c7-2-1-4-6-3(8)5-2/h1H,(H2,5,6,7,8)",SSPYSWLZOPCOLO-UHFFFAOYSA-N,?,,POMONA (1987),-0.59
101956,461-98-3,461-98-3,[H]C1=C(C([H])([H])[H])N=C(C([H])([H])[H])N=C1N([H])[H],"2,6-DIMETHYL-4-PYRIMIDINAMINE",Kyanmethin,"2,6-dimethylpyrimidin-4-amine",6572,DTXSID50196725,Cc1[n]c(N)cc(C)[n]1,"InChI=1S/C6H9N3/c1-4-3-6(7)9-5(2)8-4/h3H,1-2H3,(H2,7,8,9)",BJJDXAFKCKSLTE-UHFFFAOYSA-N,?,,"HANSCH,C ET AL. (1995)",0.39
101958,462-08-8,462-08-8,[H]C1=NC([H])=C([H])C([H])=C1N([H])[H],3-AMINOPYRIDINE,3-Pyridinamine,pyridin-3-amine,6574,DTXSID9047461,Nc1c[n]ccc1,"InChI=1S/C5H6N2/c6-5-2-1-3-7-4-5/h1-4H,6H2",CUYKNJBYIJFRCU-UHFFFAOYSA-N,?,,"HANSCH,C ET AL. (1995)",0.11
101959,462-43-1,462-43-1,[H]OC([H])([H])C([H])([H])C([H])([H])F,3-FLUOROPROPANOL,"Propanol, 3-fluoro-",3-fluoropropan-1-ol,6575,DTXSID90196764,OCCCF,"InChI=1S/C3H7FO/c4-2-1-3-5/h5H,1-3H2",NLRJUIXKEMCEOH-UHFFFAOYSA-N,?,,"HANSCH,C ET AL. (1995)",-0.28
101960,462-95-3,462-95-3,[H]C([H])(OC([H])([H])C([H])([H])[H])OC([H])([H])C([H])([H])[H],DIETHOXYMETHANE,Diethoxymethane,(ethoxymethoxy)ethane,6576,DTXSID6052112,CCOCOCC,"InChI=1S/C5H12O2/c1-3-6-5-7-4-2/h3-5H2,1-2H3",KLKFAASOGCDTDT-UHFFFAOYSA-N,?,,"HANSCH,C ET AL. (1995)",0.84
101962,463-49-0,463-49-0,[H]C([H])=C=C([H])[H],"1,2-PROPADIENE","1,2-Propadiene",propadiene,6578,DTXSID1029178,C=C=C,InChI=1S/C3H4/c1-3-2/h1-2H2,IYABWNGZIDDRAK-UHFFFAOYSA-N,?,,"HANSCH,C ET AL. (1995)",1.45
101963,463-82-1,463-82-1,[H]C([H])([H])C(C([H])([H])[H])(C([H])([H])[H])C([H])([H])[H],"2,2-DIMETHYLPROPANE","Propane, 2,2-dimethyl-","2,2-dimethylpropane",6579,DTXSID6029179,CC(C)(C)C,"InChI=1S/C5H12/c1-5(2,3)4/h1-4H3",CRSOQBOWXPBRES-UHFFFAOYSA-N,?,,"HANSCH,C ET AL. (1995)",3.11
101964,464-07-3,NOCAS_861947,[H]OC([H])(C([H])([H])[H])C(C([H])([H])[H])(C([H])([H])[H])C([H])([H])[H],"3,3-DIMETHYL-2-BUTANOL",,,6580,DTXSID10861947,CC(O)C(C)(C)C,"InChI=1S/C6H14O/c1-5(7)6(2,3)4/h5,7H,1-4H3",DFOXKPDFWGNLJU-UHFFFAOYSA-N,?,,"HANSCH,C ET AL. (1995)",1.48
101970,465-65-6,465-65-6,[H]OC1=C([H])C([H])=C2C3=C1OC1([H])C(=O)C([H])([H])C([H])([H])C4(O[H])C([H])(N(C([H])([H])C([H])=C([H])[H])C([H])([H])C([H])([H])C314)C2([H])[H],NALOXONE,Naloxone,"(5alpha)-3,14-dihydroxy-17-(prop-2-en-1-yl)-4,5-epoxymorphinan-6-one",6583,DTXSID8023349,C=CCN1CCC23C4Oc5c2c(CC1C3(O)CCC4=O)ccc5O,"InChI=1S/C19H21NO4/c1-2-8-20-9-7-18-15-11-3-4-12(21)16(15)24-17(18)13(22)5-6-19(18,23)14(20)10-11/h2-4,14,17,21,23H,1,5-10H2",UZHSEJADLWPNLE-UHFFFAOYSA-N,?,,"HANSCH,C ET AL. (1995)",2.09
101972,466-06-8,466-06-8,[H]OC1([H])C([H])(OC2([H])C([H])=C3C([H])([H])C([H])([H])C4([H])C([H])(C([H])([H])C([H])([H])C5(C([H])([H])[H])C([H])(C6=C([H])OC(=O)C([H])=C6[H])C([H])([H])C([H])([H])C45O[H])C3(C([H])([H])[H])C([H])([H])C2([H])[H])OC([H])(C([H])([H])[H])C([H])(O[H])C1([H])O[H],PROSCILLARIDIN,Proscillaridin,"(3beta)-3-[(6-deoxy-alpha-L-mannopyranosyl)oxy]-14-hydroxybufa-4,20,22-trienolide",6584,DTXSID5023532,CC1OC(OC2CCC3(C)C4CCC5(C)C(CCC5(O)C4CCC3=C2)C2=COC(=O)C=C2)C(O)C(O)C1O,"InChI=1S/C30H42O8/c1-16-24(32)25(33)26(34)27(37-16)38-19-8-11-28(2)18(14-19)5-6-22-21(28)9-12-29(3)20(10-13-30(22,29)35)17-4-7-23(31)36-15-17/h4,7,14-16,19-22,24-27,32-35H,5-6,8-13H2,1-3H3",MYEJFUXQJGHEQK-UHFFFAOYSA-N,?,,SANGSTER (1994),2.48
101973,466-07-9,NOCAS_871644,[H]OC1([H])C([H])(OC2([H])C([H])([H])C([H])([H])C3(C([H])([H])[H])C([H])(C([H])([H])C([H])([H])C4([H])C3([H])C([H])([H])C([H])([H])C3(C([H])([H])[H])C([H])(C5=C([H])C(=O)OC5([H])[H])C([H])([H])C([H])([H])C43O[H])C2([H])[H])OC([H])(C([H])([H])[H])C([H])(O[H])C1([H])OC([H])([H])[H],NERIIFOLIN,,,6585,DTXSID30871644,CC1OC(OC2CC3CCC4C(CCC5(C)C(CCC54O)C4COC(=O)C=4)C3(C)CC2)C(O)C(OC)C1O,"InChI=1S/C30H46O8/c1-16-24(32)26(35-4)25(33)27(37-16)38-19-7-10-28(2)18(14-19)5-6-22-21(28)8-11-29(3)20(9-12-30(22,29)34)17-13-23(31)36-15-17/h13,16,18-22,24-27,32-34H,5-12,14-15H2,1-4H3",VPUNMTHWNSJUOG-UHFFFAOYSA-N,?,,"HANSCH,C ET AL. (1995)",2.1
101975,467-15-2,467-15-2,[H]OC1([H])C([H])=C([H])C2([H])C3([H])N([H])C([H])([H])C([H])([H])C24C2=C(OC14[H])C(OC([H])([H])[H])=C([H])C([H])=C2C3([H])[H],Norcodeine,Norcodeine,"(5alpha,6alpha)-3-methoxy-7,8-didehydro-4,5-epoxymorphinan-6-ol",6587,DTXSID8046327,COc1ccc2CC3NCCC45C(Oc1c42)C(O)C=CC53,"InChI=1S/C17H19NO3/c1-20-13-5-2-9-8-11-10-3-4-12(19)16-17(10,6-7-18-11)14(9)15(13)21-16/h2-5,10-12,16,18-19H,6-8H2,1H3",HKOIXWVRNLGFOR-UHFFFAOYSA-N,?,,"AVDEEF,A ET AL. (1996)",0.69
101976,467-16-3,467-16-3,[H]OC([H])([H])/C([H])=C1/C([H])([H])N2C([H])([H])C([H])([H])C34C5=C([H])C([H])=C([H])C([H])=C5N5C(=O)C([H])([H])C([H])=C(C1([H])C([H])([H])C23[H])C54[H],ISOSTRYCHNINE,Isostrychnine,C21H22N2O2,6588,DTXSID30415744,OCC=C1CN2CCC34C5C(=CCC(=O)N5c5ccccc35)C1CC42,"InChI=1S/C21H22N2O2/c24-10-7-13-12-22-9-8-21-16-3-1-2-4-17(16)23-19(25)6-5-14(20(21)23)15(13)11-18(21)22/h1-5,7,15,18,20,24H,6,8-12H2/b13-7-",PNYOGGAOQVIZDM-QPEQYQDCSA-N,?,,BIOBYTE STARLIST (2009),1.37
101977,468-50-8,NOCAS_861966,[H]C1=C([H])C([H])=C(C2(OC(=O)C([H])([H])C([H])([H])[H])C([H])([H])C([H])([H])N(C([H])([H])[H])C([H])([H])C2([H])C([H])([H])C([H])([H])[H])C([H])=C1[H],"4-PIPERIDINOL, 3-ETHYL-1-METHYL-4-PHENYL-, PROPI",Alphameprodine [INN:BAN:DCF],"[(3S,4R)-3-ethyl-1-methyl-4-phenylpiperidin-4-yl] propanoate",6589,DTXSID50861966,CN1CCC(OC(=O)CC)(C(C1)CC)c1ccccc1,"InChI=1S/C17H25NO2/c1-4-14-13-18(3)12-11-17(14,20-16(19)5-2)15-9-7-6-8-10-15/h6-10,14H,4-5,11-13H2,1-3H3",ODEGQXRCQDVXSJ-UHFFFAOYSA-N,?,,"CRAIG,PN (1990)",3.61
101979,469-62-5|2338-37-6,469-62-5|2338-37-6,[H]C1=C([H])C([H])=C(C([H])([H])C(OC(=O)C([H])([H])C([H])([H])[H])(C2=C([H])C([H])=C([H])C([H])=C2[H])C([H])(C([H])([H])[H])C([H])([H])N(C([H])([H])[H])C([H])([H])[H])C([H])=C1[H],"PROPOXYPHENE, Darvon",Propoxyphene,"(2S,3R)-4-(dimethylamino)-3-methyl-1,2-diphenylbutan-2-yl propanoate",6591|8345,DTXSID1023524|DTXSID8023212,CCC(=O)OC(Cc1ccccc1)(C(C)CN(C)C)c1ccccc1,"InChI=1S/C22H29NO2/c1-5-21(24)25-22(18(2)17-23(3)4,20-14-10-7-11-15-20)16-19-12-8-6-9-13-19/h6-15,18H,5,16-17H2,1-4H3",XLMALTXPSGQGBX-UHFFFAOYSA-N,?,,"HANSCH,C ET AL. (1995)",4.18
101980,470-17-7,470-17-7,[H]C([H])=C1C(=O)OC2([H])C([H])([H])C3(C([H])([H])[H])C([H])([H])C([H])([H])C([H])([H])C(=C([H])[H])C3([H])C([H])([H])C12[H],"NAPHTHO[2,3-B]FURAN-2(3H)-ONE, DECAHYDRO-8A-METH",,,6592,DTXSID50874697,CC12CC3OC(=O)C(=C)C3CC1C(=C)CCC2,"InChI=1S/C15H20O2/c1-9-5-4-6-15(3)8-13-11(7-12(9)15)10(2)14(16)17-13/h11-13H,1-2,4-8H2,3H3",CVUANYCQTOGILD-UHFFFAOYSA-N,?,,SANGSTER (1993),3.42
101981,470-67-7,470-67-7,[H]C([H])([H])C([H])(C([H])([H])[H])C12OC(C([H])([H])[H])(C([H])([H])C1([H])[H])C([H])([H])C2([H])[H],"1,4-CINEOL","1,4-Cineole",1-methyl-4-(propan-2-yl)-7-oxabicyclo[2.2.1]heptane,6593,DTXSID3047396,CC12CCC(CC1)(O2)C(C)C,"InChI=1S/C10H18O/c1-8(2)10-6-4-9(3,11-10)5-7-10/h8H,4-7H2,1-3H3",RFFOTVCVTJUTAD-UHFFFAOYSA-N,?,,"GRIFFIN,S ET AL. (1999)",2.97
101983,470-90-6,470-90-6,[H]C1=C(Cl)C([H])=C(Cl)C(/C(OP(=O)(OC([H])([H])C([H])([H])[H])OC([H])([H])C([H])([H])[H])=C(/[H])Cl)=C1[H],CHLORFENVINPHOS,Chlorfenvinphos,"2-chloro-1-(2,4-dichlorophenyl)ethenyl diethyl phosphate",6595,DTXSID7034250,CCOP(=O)(OC(=CCl)c1ccc(Cl)cc1Cl)OCC,"InChI=1S/C12H14Cl3O4P/c1-3-17-20(16,18-4-2)19-12(8-13)10-6-5-9(14)7-11(10)15/h5-8H,3-4H2,1-2H3/b12-8+",FSAVDKDHPDSCTO-XYOKQWHBSA-N,?,,SANGSTER (1994),3.81
101985,475-21-8|675-21-8,675-21-8,[H]C1=NC([H])=C(F)C([H])=N1,"PYRIMIDINE,5-FLUORO, PYRIMIDINE, 5-FLUORO-",5-Fluoropyrimidine,5-Fluoropyrimidine,6597|7372,DTXSID80217851,Fc1c[n]c[n]c1,InChI=1S/C4H3FN2/c5-4-1-6-3-7-2-4/h1-3H,KSPDSMOWMQFPBL-UHFFFAOYSA-N,?,,BIOBYTE STARLIST (2009),-0.03
101986,475-31-0,475-31-0,[H]OC(=O)C([H])([H])N([H])C(=O)C([H])([H])C([H])([H])C([H])(C([H])([H])[H])C1([H])C([H])([H])C([H])([H])C2([H])C3([H])C([H])(O[H])C([H])([H])C4([H])C([H])([H])C([H])(O[H])C([H])([H])C([H])([H])C4(C([H])([H])[H])C3([H])C([H])([H])C([H])(O[H])C12C([H])([H])[H],GLYCOCHOLIC ACID,Glycocholic acid,"N-[(3alpha,5beta,7alpha,8xi,12alpha)-3,7,12-trihydroxy-24-oxocholan-24-yl]glycine",6598,DTXSID2047436,CC(CCC(=O)NCC(O)=O)C1CCC2C3C(CC(O)C21C)C1(C)CCC(O)CC1CC3O,"InChI=1S/C26H43NO6/c1-14(4-7-22(31)27-13-23(32)33)17-5-6-18-24-19(12-21(30)26(17,18)3)25(2)9-8-16(28)10-15(25)11-20(24)29/h14-21,24,28-30H,4-13H2,1-3H3,(H,27,31)(H,32,33)",RFDAIACWWDREDC-UHFFFAOYSA-N,?,,"RODA,A ET AL. (1990)",1.65
101988,477-27-0,477-27-0,[H]OC1=C([H])C([H])=C2C3=C(OC([H])([H])[H])C(OC([H])([H])[H])=C(OC([H])([H])[H])C([H])=C3C([H])([H])C([H])([H])C([H])(N([H])C(=O)C([H])([H])[H])C2=C([H])C1=O,COLCHICEINE,,,6600,DTXSID60878565,CC(=O)NC1CCc2cc(OC)c(OC)c(OC)c2C2=CC=C(O)C(=O)C=C21,"InChI=1S/C21H23NO6/c1-11(23)22-15-7-5-12-9-18(26-2)20(27-3)21(28-4)19(12)13-6-8-16(24)17(25)10-14(13)15/h6,8-10,15H,5,7H2,1-4H3,(H,22,23)(H,24,25)",PRGILOMAMBLWNG-UHFFFAOYSA-N,?,,"HANSCH,C ET AL. (1995)",1.2
101989,477-30-5,477-30-5,[H]C1=C(OC([H])([H])[H])C(=O)C([H])=C2C(=C1[H])C1=C(OC([H])([H])[H])C(OC([H])([H])[H])=C(OC([H])([H])[H])C([H])=C1C([H])([H])C([H])([H])C2([H])N([H])C([H])([H])[H],Demecolcine,Colcemid,"(7S)-1,2,3,10-tetramethoxy-7-(methylamino)-6,7-dihydrobenzo[a]heptalen-9(5H)-one",6601,DTXSID7020342,CNC1CCc2cc(OC)c(OC)c(OC)c2C2=CC=C(OC)C(=O)C=C21,"InChI=1S/C21H25NO5/c1-22-15-8-6-12-10-18(25-3)20(26-4)21(27-5)19(12)13-7-9-17(24-2)16(23)11-14(13)15/h7,9-11,15,22H,6,8H2,1-5H3",NNJPGOLRFBJNIW-UHFFFAOYSA-N,?,,"HANSCH,C ET AL. (1995)",1.37
101990,479-27-6,479-27-6,[H]C1=C([H])C2=C([H])C([H])=C([H])C(N([H])[H])=C2C(N([H])[H])=C1[H],"1,8-NAPHTHALENEDIAMINE","1,8-Naphthalenediamine","naphthalene-1,8-diamine",6602,DTXSID6044432,Nc1cccc2cccc(N)c12,"InChI=1S/C10H10N2/c11-8-5-1-3-7-4-2-6-9(12)10(7)8/h1-6H,11-12H2",YFOOEYJGMMJJLS-UHFFFAOYSA-N,?,,"SCHULTZ,TW & APPLEHANS,FM (1985)",1.78
101992,479-92-5,479-92-5,[H]C1=C([H])C([H])=C(N2C(=O)C(C([H])(C([H])([H])[H])C([H])([H])[H])=C(C([H])([H])[H])N2C([H])([H])[H])C([H])=C1[H],"3H-PYRAZOL-3-ONE, 1,2-DIHYDRO-1,5-DIMETHYL-4-(1-",Propyphenazone,"1,5-dimethyl-2-phenyl-4-(propan-2-yl)-1,2-dihydro-3H-pyrazol-3-one",6604,DTXSID6023529,CN1C(C)=C(C(C)C)C(=O)N1c1ccccc1,"InChI=1S/C14H18N2O/c1-10(2)13-11(3)15(4)16(14(13)17)12-8-6-5-7-9-12/h5-10H,1-4H3",PXWLVJLKJGVOKE-UHFFFAOYSA-N,?,,SANGSTER (1994),1.94
101993,480-16-0,480-16-0,[H]OC1=C([H])C([H])=C(C2=C(O[H])C(=O)C3=C(O[H])C([H])=C(O[H])C([H])=C3O2)C(O[H])=C1[H],MORIN,Morin,"2-(2,4-dihydroxyphenyl)-3,5,7-trihydroxy-4H-chromen-4-one",6605,DTXSID1022398,Oc1cc(O)c(cc1)C1Oc2cc(O)cc(O)c2C(=O)C=1O,"InChI=1S/C15H10O7/c16-6-1-2-8(9(18)3-6)15-14(21)13(20)12-10(19)4-7(17)5-11(12)22-15/h1-5,16-19,21H",YXOLAZRVSSWPPT-UHFFFAOYSA-N,?,,"HANSCH,C ET AL. (1995)",1.54
101994,480-18-2,480-18-2,[H]OC1=C([H])C2=C(C(=O)C([H])(O[H])C([H])(C3=C([H])C([H])=C(O[H])C(O[H])=C3[H])O2)C(O[H])=C1[H],"3,5,7,3',4'-PENTAHYDROXYFLAVANONE",(+)-Taxifolin,C15H12O7,6606,DTXSID8022450,OC1C(Oc2cc(O)cc(O)c2C1=O)c1cc(O)c(O)cc1,"InChI=1S/C15H12O7/c16-7-4-10(19)12-11(5-7)22-15(14(21)13(12)20)6-1-2-8(17)9(18)3-6/h1-5,14-19,21H",CXQWRCVTCMQVQX-UHFFFAOYSA-N,?,,"PERRISSOUD,D & TESTA,B (1986)",0.95
101996,480-41-1,480-41-1,[H]OC1=C([H])C([H])=C(C2([H])OC3=C([H])C(O[H])=C([H])C(O[H])=C3C(=O)C2([H])[H])C([H])=C1[H],NARINGENINE,Naringenin,"(2S)-5,7-dihydroxy-2-(4-hydroxyphenyl)-2,3-dihydro-4H-chromen-4-one",6608,DTXSID1022392,Oc1cc(O)cc2OC(CC(=O)c12)c1ccc(O)cc1,"InChI=1S/C15H12O5/c16-9-3-1-8(2-4-9)13-7-12(19)15-11(18)5-10(17)6-14(15)20-13/h1-6,13,16-18H,7H2",FTVWIRXFELQLPI-UHFFFAOYSA-N,?,,"PERRISSOUD,D & TESTA,B (1986)",2.52
101997,480-96-6,480-96-6,[H]C1C([H])C([H])C2C(NON2=O)C1[H],"BENZOFURAZAN, 1-OXIDE","2,1,3-Benzoxadiazole, 1-oxide","1-oxido-2,1,3-benzoxadiazol-1-ium",6609,DTXSID5060063,O=N1ONC2CCCCC12,"InChI=1S/C6H11N2O2/c9-8-6-4-2-1-3-5(6)7-10-8/h5-7H,1-4H2",AJFSNCPFXDYNDP-UHFFFAOYSA-N,?,,"CALVINO,R ET AL. (1992)",1.43
101998,481-39-0,481-39-0,[H]OC1=C([H])C([H])=C([H])C2=C1C(=O)C([H])=C([H])C2=O,"5-HYDROXY-1,4-NAPHTHOQUINONE",Juglone,"5-hydroxynaphthalene-1,4-dione",6610,DTXSID0031504,Oc1cccc2c1C(=O)C=CC2=O,"InChI=1S/C10H6O3/c11-7-4-5-9(13)10-6(7)2-1-3-8(10)12/h1-5,12H",KQPYUDDGWXQXHS-UHFFFAOYSA-N,?,,"HANSCH,C ET AL. (1995)",1.92
102000,482-89-3,482-89-3,[H]C1=C([H])C([H])=C2C(=C1[H])C(=O)/C(=C1/C(=O)C3=C([H])C([H])=C([H])C([H])=C3N1[H])N2[H],"2-(1,3-DIHYDRO-3-OXO-2H-INDOL-2-YLIDENE)-1,2-DI*",Indigo,"(2E)-2-(3-oxo-1,3-dihydro-2H-indol-2-ylidene)-1,2-dihydro-3H-indol-3-one",6612,DTXSID3026279,O=C1C(Nc2ccccc12)=C1Nc2ccccc2C1=O,"InChI=1S/C16H10N2O2/c19-15-9-5-1-3-7-11(9)17-13(15)14-16(20)10-6-2-4-8-12(10)18-14/h1-8,17-18H/b14-13+",COHYTHOBJLSHDF-BUHFOSPRSA-N,?,,POMONA (1987),3.72
102001,483-54-5,483-54-5,[H]C([H])([H])OC1=C(OC([H])([H])[H])C(=O)C(C([H])([H])[H])=C(C([H])([H])[H])C1=O,"2,3-DIMETHOXY-5,6-DIMETHYLBENZOQUINONE","2,3-DIMETHOXY-5,6-DIMETHYL-P-BENZOQUINONE",C10H12O4,6613,DTXSID50486259,CC1C(=O)C(OC)=C(OC)C(=O)C=1C,InChI=1S/C10H12O4/c1-5-6(2)8(12)10(14-4)9(13-3)7(5)11/h1-4H3,NOYQJVWDVBANHI-UHFFFAOYSA-N,?,,"HANSCH,C ET AL. (1995)",1.26
102002,483-55-6,483-55-6,[H]OC1=C(C([H])([H])[H])C(=O)C2=C([H])C([H])=C([H])C([H])=C2C1=O,"2-ME-3-OH-1,4-NAPHTHOQUINONE",,,6614,DTXSID80876664,CC1=C(O)C(=O)c2ccccc2C1=O,"InChI=1S/C11H8O3/c1-6-9(12)7-4-2-3-5-8(7)11(14)10(6)13/h2-5,13H,1H3",LULCPJWUGUVEFU-UHFFFAOYSA-N,?,,"HANSCH,C ET AL. (1995)",1.2
102005,486-12-4,486-12-4,[H]C1=C([H])C([H])=C([H])C(/C(C2=C([H])C([H])=C(C([H])([H])[H])C([H])=C2[H])=C(/[H])C([H])([H])N2C([H])([H])C([H])([H])C([H])([H])C2([H])[H])=N1,TRIPOLIDINE,Triprolidine,2-[(1E)-1-(4-methylphenyl)-3-(pyrrolidin-1-yl)prop-1-en-1-yl]pyridine,6616,DTXSID3023718,Cc1ccc(cc1)C(=CCN1CCCC1)c1cccc[n]1,"InChI=1S/C19H22N2/c1-16-7-9-17(10-8-16)18(19-6-2-3-12-20-19)11-15-21-13-4-5-14-21/h2-3,6-12H,4-5,13-15H2,1H3/b18-11-",CBEQULMOCCWAQT-WQRHYEAKSA-N,?,,"HANSCH,C ET AL. (1995)",3.92
102006,486-25-9,486-25-9,[H]C1=C([H])C2=C(C([H])=C1[H])C1=C(C2=O)C([H])=C([H])C([H])=C1[H],FLUORENONE,9-Fluorenone,9H-fluoren-9-one,6617,DTXSID6049307,O=C1c2ccccc2-c2ccccc21,InChI=1S/C13H8O/c14-13-11-7-3-1-5-9(11)10-6-2-4-8-12(10)13/h1-8H,YLQWCDOCJODRMT-UHFFFAOYSA-N,?,,"HANSCH,C ET AL. (1995)",3.58
102007,486-56-6,486-56-6,[H]C1=NC([H])=C([H])C([H])=C1C1([H])N(C([H])([H])[H])C(=O)C([H])([H])C1([H])[H],"2-PYRROLIDINONE, 1-METHYL-5-(3-PYRIDINYL)-, (S)-",Cotinine,(5S)-1-methyl-5-(pyridin-3-yl)pyrrolidin-2-one,6618,DTXSID1047576,CN1C(CCC1=O)c1ccc[n]c1,"InChI=1S/C10H12N2O/c1-12-9(4-5-10(12)13)8-3-2-6-11-7-8/h2-3,6-7,9H,4-5H2,1H3",UIKROCXWUNQSPJ-UHFFFAOYSA-N,?,,"LI,NY & GORROD,JW (1992)",0.07
102009,487-03-6,487-03-6,[H]OC1=C([H])C([H])=C2C3=C(C(C([H])([H])[H])=NC([H])=C3[H])N([H])C2=C1[H],HARMOL,,,6620,DTXSID10876697,Cc1[n]ccc2c1[nH]c1cc(O)ccc21,"InChI=1S/C12H10N2O/c1-7-12-10(4-5-13-7)9-3-2-8(15)6-11(9)14-12/h2-6,14-15H,1H3",SATMZMMKDDTOSQ-UHFFFAOYSA-N,?,,BIOBYTE STARLIST (2009),2.84
102010,487-26-3,487-26-3,[H]C1=C([H])C([H])=C(C2([H])OC3=C([H])C([H])=C([H])C([H])=C3C(=O)C2([H])[H])C([H])=C1[H],FLAVANONE,Flavanone,"2-phenyl-2,3-dihydro-4H-chromen-4-one",6621,DTXSID9022318,O=C1CC(Oc2ccccc21)c1ccccc1,"InChI=1S/C15H12O2/c16-13-10-15(11-6-2-1-3-7-11)17-14-9-5-4-8-12(13)14/h1-9,15H,10H2",ZONYXWQDUYMKFB-UHFFFAOYSA-N,?,,"BEYELER,S ET AL. 1988",3.14