ChemID,source_casrn,CAS,SMILES,NAME,preferred_name,iupac,MPID,dsstox_substance_id,Canonical_QSARr,InChI_Code_QSARr,InChI Key_QSARr,Salt_Solvent,Salt_Solvent_ID,Kow Reference,LogP
103788,2255-17-6,2255-17-6,[H]C1=C(OP(=O)(OC([H])([H])[H])OC([H])([H])[H])C([H])=C(C([H])([H])[H])C([N+](=O)[O-])=C1[H],3-METHYL-DIMETHYL PARA-OXON,Fenitrooxone,dimethyl (3-methyl-4-nitrophenyl) phosphate,8309,DTXSID00177084,Cc1cc(ccc1[N+]([O-])=O)OP(=O)(OC)OC,"InChI=1S/C9H12NO6P/c1-7-6-8(4-5-9(7)10(11)12)16-17(13,14-2)15-3/h4-6H,1-3H3",MJNAIAPNXYJWCT-UHFFFAOYSA-N,?,,"HANSCH,C & LEO,AJ (1985)",1.69
103789,2256-16-8,2256-16-8,[H]OC1([H])C([H])(SC([H])([H])[H])OC([H])(C([H])(N([H])C(=O)C2([H])N([H])C([H])([H])C([H])(C([H])([H])C([H])([H])C([H])([H])[H])C2([H])[H])C([H])(O[H])C([H])([H])[H])C([H])(O[H])C1([H])O[H],D-ERYTHRO-A-D-GALACTO-OCTOPYRANOSIDE DERIVATIVE,,,8310,DTXSID90875002,CC(O)C(NC(=O)C1CC(CCC)CN1)C1OC(SC)C(O)C(O)C1O,"InChI=1S/C17H32N2O6S/c1-4-5-9-6-10(18-7-9)16(24)19-11(8(2)20)15-13(22)12(21)14(23)17(25-15)26-3/h8-15,17-18,20-23H,4-7H2,1-3H3,(H,19,24)",DKHKYHYYYGYWHY-UHFFFAOYSA-N,?,,POMONA (1987),0.04
103791,2257-09-2,2257-09-2,[H]C1=C([H])C([H])=C(C([H])([H])C([H])([H])N=C=S)C([H])=C1[H],2-PHENETHYLISOTHIOCYANATE,Phenethyl isothiocyanate,(2-isothiocyanatoethyl)benzene,8312,DTXSID5021120,S=C=NCCc1ccccc1,"InChI=1S/C9H9NS/c11-8-10-7-6-9-4-2-1-3-5-9/h1-5H,6-7H2",IZJDOKYDEWTZSO-UHFFFAOYSA-N,?,,"HANSCH,C ET AL. (1995)",3.47
103792,2259-96-3,2259-96-3,[H]C1=C(Cl)C(S(=O)(=O)N([H])[H])=C([H])C2=C1N([H])C([H])(C1([H])C([H])([H])C3([H])C([H])=C([H])C1([H])C3([H])[H])N([H])S2(=O)=O,CYCLOTHIAZIDE,Cyclothiazide,"3-(bicyclo[2.2.1]hept-5-en-2-yl)-6-chloro-3,4-dihydro-2H-1,2,4-benzothiadiazine-7-sulfonamide 1,1-dioxide",8313,DTXSID3022871,NS(=O)(=O)c1cc2c(cc1Cl)NC(NS2(=O)=O)C1CC2CC1C=C2,"InChI=1S/C14H16ClN3O4S2/c15-10-5-11-13(6-12(10)23(16,19)20)24(21,22)18-14(17-11)9-4-7-1-2-8(9)3-7/h1-2,5-9,14,17-18H,3-4H2,(H2,16,19,20)",BOCUKUHCLICSIY-UHFFFAOYSA-N,?,,"YAMAZAKI,M ET AL. (1984)",1.95
103793,2262-52-4,2262-52-4,[H]C1=C([H])C(F)=C(C([H])=C(C(=O)OC([H])([H])C([H])([H])[H])C(=O)OC([H])([H])C([H])([H])[H])C([H])=C1[H],"DIETHYLMALONATE,2-F BENZAL",,,8314,DTXSID40877516,CCOC(=O)C(=Cc1ccccc1F)C(=O)OCC,"InChI=1S/C14H15FO4/c1-3-18-13(16)11(14(17)19-4-2)9-10-7-5-6-8-12(10)15/h5-9H,3-4H2,1-2H3",VGOZHARPEROUQM-UHFFFAOYSA-N,?,,"HANSCH,C ET AL. (1995)",3.04
103795,2270-20-4,2270-20-4,[H]OC(=O)C([H])([H])C([H])([H])C([H])([H])C([H])([H])C1=C([H])C([H])=C([H])C([H])=C1[H],5-PHENYLPENTANOIC ACID,5-Phenylvaleric acid,5-Phenylpentanoic acid,8316,DTXSID80177229,OC(=O)CCCCc1ccccc1,"InChI=1S/C11H14O2/c12-11(13)9-5-4-8-10-6-2-1-3-7-10/h1-3,6-7H,4-5,8-9H2,(H,12,13)",BYHDDXPKOZIZRV-UHFFFAOYSA-N,?,,"AUSTIN,RP ET AL. (1995)",2.94
103796,2274-01-3,2274-01-3,[H]N([H])C(=O)N([H])C(=O)C([H])(C([H])([H])C([H])([H])[H])C([H])([H])C([H])([H])[H],3-ETHYLBUTANOYLUREA,Diethylacetylurea,N-carbamoyl-2-ethylbutanamide,8317,DTXSID8020460,CCC(CC)C(=O)NC(N)=O,"InChI=1S/C7H14N2O2/c1-3-5(4-2)6(10)9-7(8)11/h5H,3-4H2,1-2H3,(H3,8,9,10,11)",JIOUJVPLJOQUFD-UHFFFAOYSA-N,?,,"HANSCH,C ET AL. (1995)",0.91
103797,2274-08-0,2274-08-0,[H]N([H])C(=O)N([H])C(=O)C([H])([H])C([H])(C([H])([H])[H])C([H])([H])[H],3-METHYLBUTANOYLUREA,ISOVALERYLUREA,C6H12N2O2,8318,DTXSID90340881,CC(C)CC(=O)NC(N)=O,"InChI=1S/C6H12N2O2/c1-4(2)3-5(9)8-6(7)10/h4H,3H2,1-2H3,(H3,7,8,9,10)",KBJPBSNKRUDROY-UHFFFAOYSA-N,?,,"HANSCH,C ET AL. (1995)",0.45
103799,2274-67-1,2274-67-1,[H]C1=C([H])C(/C(OP(=O)(OC([H])([H])[H])OC([H])([H])[H])=C(/[H])Cl)=C(Cl)C([H])=C1Cl,"PHOSPHORIC ACID,2-CHLORO-(2,4-DICHLOROPHENYL)VIN",Dimethylvinphos,"(Z)-2-chloro-1-(2,4-dichlorophenyl)vinyl dimethyl phosphate",8320,DTXSID9058026,COP(=O)(OC(=CCl)c1ccc(Cl)cc1Cl)OC,"InChI=1S/C10H10Cl3O4P/c1-15-18(14,16-2)17-10(6-11)8-4-3-7(12)5-9(8)13/h3-6H,1-2H3/b10-6+",QSGNQELHULIMSJ-UXBLZVDNSA-N,?,,"TOMLIN,C (1994)",3.13
103800,2284-20-0,2284-20-0,[H]C1=C([H])C(OC([H])([H])[H])=C([H])C([H])=C1N=C=S,"BENZENE, 1-ISOTHIOCYANATO-4-METHOXY",4-Methoxyphenylisothiocyanate,1-isothiocyanato-4-methoxybenzene,8321,DTXSID00177387,COc1ccc(cc1)N=C=S,"InChI=1S/C8H7NOS/c1-10-8-4-2-7(3-5-8)9-6-11/h2-5H,1H3",VRPQCVLBOZOYCG-UHFFFAOYSA-N,?,,"AUGUSTIN,S ET AL. (1987)",3.58
103801,2285-16-7,2285-16-7,[H]C1=C([H])C([H])=C(C2=NC([H])([H])C(=O)N([H])C3=C([H])C([H])=C(C(F)(F)F)C([H])=C23)C([H])=C1[H],"1,4-BENZODIAZEPIN-2-ONE,5(CF3)PH","2H-1,4-Benzodiazepin-2-one, 1,3-dihydro-5-phenyl-7-(trifluoromethyl)-","5-phenyl-7-(trifluoromethyl)-1,3-dihydro-1,4-benzodiazepin-2-one",8322,DTXSID70177394,O=C1CN=C(c2cc(ccc2N1)C(F)(F)F)c1ccccc1,"InChI=1S/C16H11F3N2O/c17-16(18,19)11-6-7-13-12(8-11)15(20-9-14(22)21-13)10-4-2-1-3-5-10/h1-8H,9H2,(H,21,22)",UUBMOUNXQFMBQF-UHFFFAOYSA-N,?,,BIOBYTE (1995),3.1
103803,2297-94-1,2297-94-1,[H]OC1=C([H])C([H])=C(N=O)C([H])=C([H])C1=O,"2,4,6-CYCLOHEPTATRIENE-1-ONE, 2-HYDROXY-5-NITROS",,,8324,DTXSID50879046,OC1=CC=C(C=CC1=O)N=O,"InChI=1S/C7H5NO3/c9-6-3-1-5(8-11)2-4-7(6)10/h1-4H,(H,9,10)",FYTNKOSUJSUKML-UHFFFAOYSA-N,?,,SANGSTER (1993),0.83
103804,2298-99-9,2298-99-9,[H]OC1=C(C([H])([H])[H])OC(C([H])([H])[H])=C([H])C1=O,"4H-PYRAN-4-ONE, 3-HYDROXY-2,6-DIMETHYL-",,,8325,DTXSID80879099,CC1OC(C)=CC(=O)C=1O,"InChI=1S/C7H8O3/c1-4-3-6(8)7(9)5(2)10-4/h3,9H,1-2H3",XDEZVFBBUCLCGZ-UHFFFAOYSA-N,?,,"ELLIS,BL ET AL. (1996)",0.44
103805,2301-40-8,2301-40-8,[H]C1=C([H])C([H])=C(C([H])([H])N2C(=O)N([H])C([H])([H])C2=O)C([H])=C1[H],"2,4-IMIDAZOLIDINEDIONE, 3-(PHENYLMETHYL)-",,,8326,DTXSID50875881,O=C1CNC(=O)N1Cc1ccccc1,"InChI=1S/C10H10N2O2/c13-9-6-11-10(14)12(9)7-8-4-2-1-3-5-8/h1-5H,6-7H2,(H,11,14)",AODAEDMAPRQATI-UHFFFAOYSA-N,?,,SANGSTER (1994),0.82
103807,2303-17-5,2303-17-5,[H]C([H])(SC(=O)N(C([H])(C([H])([H])[H])C([H])([H])[H])C([H])(C([H])([H])[H])C([H])([H])[H])C(Cl)=C(Cl)Cl,TRIALLATE,Tri-allate,"S-(2,3,3-trichloroprop-2-en-1-yl) dipropan-2-ylcarbamothioate",8328,DTXSID5024344,CC(C)N(C(C)C)C(=O)SCC(Cl)=C(Cl)Cl,"InChI=1S/C10H16Cl3NOS/c1-6(2)14(7(3)4)10(15)16-5-8(11)9(12)13/h6-7H,5H2,1-4H3",MWBPRDONLNQCFV-UHFFFAOYSA-N,?,,"TOMLIN,C (1997)",4.6
103808,2303-25-5,2303-25-5,[H]C1=C([H])C(C([H])([H])[H])=C([H])C(OC2=C([H])C([H])=C([N+](=O)[O-])C([H])=C2[H])=C1[H],3-ME-4'-NO2-DIPHENYL ETHER,"Benzene, 1-methyl-3-(4-nitrophenyl)-",1-methyl-3-(4-nitrophenoxy)benzene,8329,DTXSID40177583,Cc1cc(ccc1)Oc1ccc(cc1)[N+]([O-])=O,"InChI=1S/C13H11NO3/c1-10-3-2-4-13(9-10)17-12-7-5-11(6-8-12)14(15)16/h2-9H,1H3",DLKBRTKDSDXWNA-UHFFFAOYSA-N,?,,"NANDIHALLI,UB ET AL. (1993)",4.4
103809,2307-68-8,2307-68-8,[H]C1=C(Cl)C(C([H])([H])[H])=C([H])C([H])=C1N([H])C(=O)C([H])(C([H])([H])[H])C([H])([H])C([H])([H])C([H])([H])[H],PENTANOCHLOR,Pentanochlor,N-(3-chloro-4-methylphenyl)-2-methylpentanamide,8330,DTXSID3042265,Cc1ccc(cc1Cl)NC(=O)C(C)CCC,"InChI=1S/C13H18ClNO/c1-4-5-10(3)13(16)15-11-7-6-9(2)12(14)8-11/h6-8,10H,4-5H2,1-3H3,(H,15,16)",WGVWLKXZBUVUAM-UHFFFAOYSA-N,?,,"MITSUTAKE,KI ET AL. (1986)",4.31
103811,2312-35-8,2312-35-8,[H]C#CC([H])([H])OS(=O)OC1([H])C([H])([H])C([H])([H])C([H])([H])C([H])([H])C1([H])OC1=C([H])C([H])=C(C(C([H])([H])[H])(C([H])([H])[H])C([H])([H])[H])C([H])=C1[H],PROPARGITE,Propargite,2-(4-tert-butylphenoxy)cyclohexyl prop-2-yn-1-yl sulfite,8332,DTXSID4024276,CC(C)(C)c1ccc(cc1)OC1CCCCC1OS(=O)OCC#C,"InChI=1S/C19H26O4S/c1-5-14-21-24(20)23-18-9-7-6-8-17(18)22-16-12-10-15(11-13-16)19(2,3)4/h1,10-13,17-18H,6-9,14H2,2-4H3",ZYHMJXZULPZUED-UHFFFAOYSA-N,?,,"SAITO,H ET AL. (1993)",5.0
103812,2314-09-2,2314-09-2,[H]OC1(C(=O)OC([H])([H])C([H])([H])C([H])([H])C([H])([H])[H])C2=C([H])C([H])=C([H])C([H])=C2C2=C([H])C([H])=C([H])C([H])=C21,Flurenol-butyl,Flurenol-butyl,butyl 9-hydroxy-9H-fluorene-9-carboxylate,8333,DTXSID5041986,CCCCOC(=O)C1(O)c2ccccc2-c2ccccc12,"InChI=1S/C18H18O3/c1-2-3-12-21-17(19)18(20)15-10-6-4-8-13(15)14-9-5-7-11-16(14)18/h4-11,20H,2-3,12H2,1H3",PSGPXWYGJGGEEG-UHFFFAOYSA-N,?,,"TOMLIN,C (1997)",3.7
103814,2314-80-9,2314-80-9,[H]C1=C([H])C(N2C(=O)C([H])([H])C([H])([H])C2=O)=C([H])C([H])=C1OC([H])([H])[H],P-METHOXY-N-PHENYLSUCCINIMIDE,"1-(4-methoxyphenyl)pyrrolidine-2,5-dione",C11H11NO3,8334,DTXSID50323352,COc1ccc(cc1)N1C(=O)CCC1=O,"InChI=1S/C11H11NO3/c1-15-9-4-2-8(3-5-9)12-10(13)6-7-11(12)14/h2-5H,6-7H2,1H3",MHZVVJBHJQRDQI-UHFFFAOYSA-N,?,,"HANSCH,C ET AL. (1995)",0.15
103816,2316-26-9,NOCAS_871869,[H]OC(=O)/C([H])=C(\[H])C1=C([H])C(OC([H])([H])[H])=C(OC([H])([H])[H])C([H])=C1[H],"CINNAMIC ACID,3,4-DIMETHOXY",,,8336,DTXSID10871869,COc1cc(ccc1OC)C=CC(O)=O,"InChI=1S/C11H12O4/c1-14-9-5-3-8(4-6-11(12)13)7-10(9)15-2/h3-7H,1-2H3,(H,12,13)/b6-4+",HJBWJAPEBGSQPR-GQCTYLIASA-N,?,,"HANSCH,C ET AL. (1995)",2.34
103817,2316-64-5,2316-64-5,[H]OC1=C([H])C([H])=C(Br)C([H])=C1C([H])([H])O[H],"BENZENEMETHANOL, 5-BROMO-2-HYDROXY-",Bromosaligenin,4-bromo-2-(hydroxymethyl)phenol,8337,DTXSID30177739,Oc1ccc(Br)cc1CO,"InChI=1S/C7H7BrO2/c8-6-1-2-7(10)5(3-6)4-9/h1-3,9-10H,4H2",KNKRHSVKIORZQB-UHFFFAOYSA-N,?,,SANGSTER (1993),1.72
103818,2327-02-8,2327-02-8,[H]C1=C([H])C(N([H])C(=O)N([H])[H])=C([H])C(Cl)=C1Cl,"(3,4-DICHLOROPHENYL)UREA","3,4-Dichlorophenylurea","1-(3,4-dichlorophenyl)urea",8338,DTXSID2041468,NC(=O)Nc1cc(Cl)c(Cl)cc1,"InChI=1S/C7H6Cl2N2O/c8-5-2-1-4(3-6(5)9)11-7(10)12/h1-3H,(H3,10,11,12)",CYESCLHCWJKRKM-UHFFFAOYSA-N,?,,SANGSTER (1994),2.65
103820,2338-12-7,2338-12-7,[H]C1=C([H])C([N+](=O)[O-])=C([H])C2=C1N([H])N=N2,5-NITROBENZOTRIAZOLE,"1H-Benzotriazole, 5-nitro-",,8340,DTXSID2062329,[O-][N+](=O)c1cc2[n][n][nH]c2cc1,"InChI=1S/C6H4N4O2/c11-10(12)4-1-2-5-6(3-4)8-9-7-5/h1-3H,(H,7,8,9)",AOCDQWRMYHJTMY-UHFFFAOYSA-N,?,,"HANSCH,C ET AL. (1995)",1.95
103821,2338-25-2,2338-25-2,[H]C1=C2N=C(C(F)(F)F)N([H])C2=C([H])C(Cl)=C1Cl,"2-CF3-5,6-DICHLOROBENZIMIDAZOLE","1H-Benzimidazole, 5,6-dichloro-2-(trifluoromethyl)-","5,6-dichloro-2-(trifluoromethyl)-1H-benzimidazole",8341,DTXSID10177934,FC(F)(F)c1[nH]c2cc(Cl)c(Cl)cc2[n]1,"InChI=1S/C8H3Cl2F3N2/c9-3-1-5-6(2-4(3)10)15-7(14-5)8(11,12)13/h1-2H,(H,14,15)",KUMRUFFLHYXFLV-UHFFFAOYSA-N,?,,"HANSCH,C ET AL. (1995)",3.49
103822,2338-27-4,2338-27-4,[H]C1=C(Cl)C(Cl)=C(Cl)C2=C1N([H])C(C(F)(F)F)=N2,"1H-BENZIMIDAZOLE, 4,5,6-TRICHLORO-2-(TRIFLUOROME","Benzimidazole, 4,5,6-trichloro-2-(trifluoromethyl)-","4,5,6-trichloro-2-(trifluoromethyl)-1H-benzimidazole",8342,DTXSID70177935,FC(F)(F)c1[nH]c2cc(Cl)c(Cl)c(Cl)c2[n]1,"InChI=1S/C8H2Cl3F3N2/c9-2-1-3-6(5(11)4(2)10)16-7(15-3)8(12,13)14/h1H,(H,15,16)",BXCSXZJKEJQDKS-UHFFFAOYSA-N,?,,SANGSTER (1994),3.87
103824,2338-31-0,2338-31-0,[H]C1=C([H])C2=C(N=C(C(F)(F)F)N2[H])C(Cl)=C1[H],2-CF3-4-CHLOROBENZIMIDAZOLE,"Benzimidazole, 4-chloro-2-(trifluoromethyl)-",4-chloro-2-(trifluoromethyl)-1H-benzimidazole,8344,DTXSID50177938,FC(F)(F)c1[nH]c2cccc(Cl)c2[n]1,"InChI=1S/C8H4ClF3N2/c9-4-2-1-3-5-6(4)14-7(13-5)8(10,11)12/h1-3H,(H,13,14)",WUDKQPQAAUQCLT-UHFFFAOYSA-N,?,,"HANSCH,C ET AL. (1995)",2.93
103826,2345-34-8,2345-34-8,[H]OC(=O)C1=C([H])C([H])=C(OC(=O)C([H])([H])[H])C([H])=C1[H],4-ACETOXYBENZOIC ACID,"Benzoic acid, 4-(acetyloxy)-",4-acetyloxybenzoic acid,8346,DTXSID1062334,CC(=O)Oc1ccc(cc1)C(O)=O,"InChI=1S/C9H8O4/c1-6(10)13-8-4-2-7(3-5-8)9(11)12/h2-5H,1H3,(H,11,12)",GDBUZIKSJGRBJP-UHFFFAOYSA-N,?,,DAYLIGHT (1999),1.48
103827,2348-74-5,2348-74-5,[H]C1=C([H])C2=C(C(=O)C(N([H])C(=O)C([H])([H])[H])=C([H])C2=O)C([H])=C1[H],"1,4-NAPHTHOQUINONE,2-ACETAMIDO",,,8347,DTXSID90877086,CC(=O)NC1=CC(=O)c2ccccc2C1=O,"InChI=1S/C12H9NO3/c1-7(14)13-10-6-11(15)8-4-2-3-5-9(8)12(10)16/h2-6H,1H3,(H,13,14)",CHRDDMHFEJSYTL-UHFFFAOYSA-N,?,,"HANSCH,C ET AL. (1995)",1.29
103829,2348-82-5,2348-82-5,[H]C1=C([H])C([H])=C2C(=O)C(OC([H])([H])[H])=C([H])C(=O)C2=C1[H],"2-METHOXY-1,4-NAPHTHOQUINONE","2-Methoxy-1,4-naphthoquinone","2-methoxynaphthalene-1,4-dione",8349,DTXSID1062338,COC1=CC(=O)c2ccccc2C1=O,"InChI=1S/C11H8O3/c1-14-10-6-9(12)7-4-2-3-5-8(7)11(10)13/h2-6H,1H3",OBGBGHKYJAOXRR-UHFFFAOYSA-N,?,,"HANSCH,C ET AL. (1995)",1.35
103830,2362-62-1,2362-62-1,[H]C1=C([H])C(C([H])([H])[H])=C([H])C([H])=C1C(=S)N([H])[H],"BENZENECARBOTHIAMIDE, 4-METHYL-",4-Methylthiobenzamide,4-Methylbenzenecarbothioamide,8350,DTXSID20178295,Cc1ccc(cc1)C(N)=S,"InChI=1S/C8H9NS/c1-6-2-4-7(5-3-6)8(9)10/h2-5H,1H3,(H2,9,10)",QXYZSNGZMDVLKN-UHFFFAOYSA-N,?,,SANGSTER (1994),2.01
103831,2362-64-3,2362-64-3,[H]C1=C([H])C(C(=S)N([H])[H])=C([H])C([H])=C1OC([H])([H])[H],"BENZENECARBOTHIAMIDE, 4-METHOXY-","Benzenecarbothioamide, 4-methoxy-",4-methoxybenzenecarbothioamide,8351,DTXSID80178296,COc1ccc(cc1)C(N)=S,"InChI=1S/C8H9NOS/c1-10-7-4-2-6(3-5-7)8(9)11/h2-5H,1H3,(H2,9,11)",WKWVTPKUHJOVTI-UHFFFAOYSA-N,?,,"POLASEK,M ET AL. (1988)",1.63
103834,2365-30-2,2365-30-2,[H]N([H])C(=O)N(N=O)C([H])([H])C([H])([H])Cl,1-(2-CHLOROETHYL)-1-NITROSOUREA,1-(2-Chloroethyl)-1-nitrosourea,1-(2-Chloroethyl)-1-nitrosourea,8353,DTXSID50178324,NC(=O)N(CCCl)N=O,"InChI=1S/C3H6ClN3O2/c4-1-2-7(6-9)3(5)8/h1-2H2,(H2,5,8)",NVKGVBZZSJFQLM-UHFFFAOYSA-N,?,,"HANSCH,C ET AL. (1995)",0.57
103835,2366-52-1,2366-52-1,[H]C([H])([H])C([H])([H])C([H])([H])C([H])([H])F,1-FLUOROBUTANE,"Butane, 1-fluoro-",1-FLUOROBUTANE,8354,DTXSID4062351,CCCCF,"InChI=1S/C4H9F/c1-2-3-4-5/h2-4H2,1H3",FCBJLBCGHCTPAQ-UHFFFAOYSA-N,?,,"HANSCH,C ET AL. (1995)",2.58
103837,2373-80-0,NOCAS_870960,[H]OC(=O)/C([H])=C(\[H])C1=C([H])C2=C(OC([H])([H])O2)C([H])=C1[H],"3,4-(METHYLENEDIOXY)CINNAMIC ACID",,,8355,DTXSID80870960,OC(=O)C=Cc1cc2OCOc2cc1,"InChI=1S/C10H8O4/c11-10(12)4-2-7-1-3-8-9(5-7)14-6-13-8/h1-5H,6H2,(H,11,12)/b4-2+",QFQYZMGOKIROEC-DUXPYHPUSA-N,?,,SANGSTER (1993),2.59
103839,2374-03-0,2374-03-0,[H]OC(=O)C1=C([H])C([H])=C(N([H])[H])C(O[H])=C1[H],3-HYDROXY-4-AMINOBENZOIC ACID,4-Amino-3-hydroxybenzoic acid,4-Amino-3-hydroxybenzoic acid,8357,DTXSID90178409,Nc1ccc(cc1O)C(O)=O,"InChI=1S/C7H7NO3/c8-5-2-1-4(7(10)11)3-6(5)9/h1-3,9H,8H2,(H,10,11)",NFPYJDZQOKCYIE-UHFFFAOYSA-N,?,,"HANSCH,C ET AL. (1995)",0.5
103840,2380-78-1,2380-78-1,[H]OC1=C(OC([H])([H])[H])C([H])=C(C([H])([H])C([H])([H])O[H])C([H])=C1[H],3-METHOXY-4-HYDROXYPHENYLETHANOL,3-Methoxy-4-hydroxyphenylethanol,4-(2-hydroxyethyl)-2-methoxyphenol,8358,DTXSID40178494,COc1cc(CCO)ccc1O,"InChI=1S/C9H12O3/c1-12-9-6-7(4-5-10)2-3-8(9)11/h2-3,6,10-11H,4-5H2,1H3",XHUBSJRBOQIZNI-UHFFFAOYSA-N,?,,"HANSCH,C ET AL. (1995)",0.47
103841,2385-77-5,2385-77-5,[H]C(=O)C([H])([H])C([H])(C([H])([H])[H])C([H])([H])C([H])([H])C([H])=C(C([H])([H])[H])C([H])([H])[H],(R)-(+)-Citronellal,"(3R)-3,7-Dimethyloct-6-enal (6-Octenal, 3,7-dimethyl-, (3R)-)","(3R)-3,7-dimethyloct-6-enal",8359,DTXSID6044482,CC(CCC=C(C)C)CC=O,"InChI=1S/C10H18O/c1-9(2)5-4-6-10(3)7-8-11/h5,8,10H,4,6-7H2,1-3H3",NEHNMFOYXAPHSD-UHFFFAOYSA-N,?,,"GRIFFIN,S ET AL. (1999)",3.83
103843,2386-53-0,2386-53-0,[H]OS(=O)(=O)C([H])([H])C([H])([H])C([H])([H])C([H])([H])C([H])([H])C([H])([H])C([H])([H])C([H])([H])C([H])([H])C([H])([H])C([H])([H])C([H])([H])[H],"DODECYL SULFONATE, SODIUM SALT",Sodium 1-dodecanesulfonate,C12H25NaO3S,8361,DTXSID40858744,CCCCCCCCCCCCS(O)(=O)=O,"InChI=1S/C12H26O3S/c1-2-3-4-5-6-7-8-9-10-11-12-16(13,14)15/h2-12H2,1H3,(H,13,14,15)",LDMOEFOXLIZJOW-UHFFFAOYSA-N,[Na+],7,"HANSCH,C & LEO,AJ (1985)",0.96
103844,2387-16-8,2387-16-8,[H]C1=C([H])C([H])=C(C([H])(C2=C([H])C([H])=C([H])C([H])=C2[H])C([H])(Cl)Cl)C([H])=C1[H],"1,1-DICHLORO-2,2-DIPHENYLETHANE","1,1-Dichloro-2,2-diphenylethane","(2,2-Dichloro-1-phenylethyl)benzene",8362,DTXSID40178570,ClC(Cl)C(c1ccccc1)c1ccccc1,"InChI=1S/C14H12Cl2/c15-14(16)13(11-7-3-1-4-8-11)12-9-5-2-6-10-12/h1-10,13-14H",FVMUDWLRSAABPN-UHFFFAOYSA-N,?,,"HANSCH,C ET AL. (1995)",4.51
103845,2388-47-8,2388-47-8,[H]C1=C(Cl)C(OP(=O)(OC([H])([H])[H])N([H])C([H])(C([H])([H])[H])C([H])([H])C([H])([H])[H])=C([H])C(Cl)=C1Cl,"PHOSPHORAMIDIC ACID, N-(1-METHYLPROPYL)-, O-METH",,,8363,DTXSID00874228,COP(=O)(NC(C)CC)Oc1cc(Cl)c(Cl)cc1Cl,"InChI=1S/C11H15Cl3NO3P/c1-4-7(2)15-19(16,17-3)18-11-6-9(13)8(12)5-10(11)14/h5-7H,4H2,1-3H3,(H,15,16)",MKIPWJRZOLZWBK-UHFFFAOYSA-N,?,,"HANSCH,C ET AL. (1995)",3.99
103848,2392-68-9,2392-68-9,[H]C1=C([H])C(N=C=S)=C([H])C(Cl)=C1[H],1-CHLORO-3-ISOTHIOCYANATO-BENZENE,"Isothiocyanic acid, 3-chlorophenyl ester",1-chloro-3-isothiocyanatobenzene,8365,DTXSID20178634,S=C=Nc1cccc(Cl)c1,InChI=1S/C7H4ClNS/c8-6-2-1-3-7(4-6)9-5-10/h1-4H,WGXCKFMVBAOIFH-UHFFFAOYSA-N,?,,SANGSTER (1994),3.36
103849,2395-96-2,2395-96-2,[H]C1=C([H])C([H])=C2C(OC([H])([H])[H])=C3C([H])=C([H])C([H])=C([H])C3=C([H])C2=C1[H],9-METHOXYANTHRACENE,9-Methoxyanthracene,9-METHOXYANTHRACENE,8366,DTXSID60178653,COc1c2ccccc2cc2ccccc21,"InChI=1S/C15H12O/c1-16-15-13-8-4-2-6-11(13)10-12-7-3-5-9-14(12)15/h2-10H,1H3",DVRKZTKTNYRYLF-UHFFFAOYSA-N,?,,BIOBYTE STARLIST (2009),4.36
103850,2398-37-0,2398-37-0,[H]C1=C([H])C(Br)=C([H])C(OC([H])([H])[H])=C1[H],1-BROMO-3-METHOXYBENZENE,1-Bromo-3-methoxybenzene,1-bromo-3-methoxybenzene,8367,DTXSID4044618,COc1cccc(Br)c1,"InChI=1S/C7H7BrO/c1-9-7-4-2-3-6(8)5-7/h2-5H,1H3",PLDWAJLZAAHOGG-UHFFFAOYSA-N,?,,"DUNN,WJ ET AL. (1983)",3.03
103852,2402-77-9,2402-77-9,[H]C1=C([H])C([H])=C(Cl)C(Cl)=N1,"2,3-DICHLOROPYRIDINE","2,3-Dichloropyridine","2,3-dichloropyridine",8369,DTXSID7051894,Clc1ccc[n]c1Cl,InChI=1S/C5H3Cl2N/c6-4-2-1-3-8-5(4)7/h1-3H,MAKFMOSBBNKPMS-UHFFFAOYSA-N,?,,"HANSCH,C ET AL. (1995)",2.11
103853,2402-78-0,2402-78-0,[H]C1=C(Cl)N=C(Cl)C([H])=C1[H],"2,6-DICHLOROPYRIDINE","2,6-Dichloropyridine","2,6-dichloropyridine",8370,DTXSID2051895,Clc1cccc(Cl)[n]1,InChI=1S/C5H3Cl2N/c6-4-2-1-3-5(7)8-4/h1-3H,FILKGCRCWDMBKA-UHFFFAOYSA-N,?,,"HANSCH,C ET AL. (1995)",2.15
103854,2402-79-1,2402-79-1,[H]C1=C(Cl)C(Cl)=NC(Cl)=C1Cl,"2,3,5,6-TETRACHLORPYRIDINE","2,3,5,6-Tetrachloropyridine","2,3,5,6-tetrachloropyridine",8371,DTXSID7027467,Clc1[n]c(Cl)c(Cl)cc1Cl,InChI=1S/C5HCl4N/c6-2-1-3(7)5(9)10-4(2)8/h1H,FATBKZJZAHWCSL-UHFFFAOYSA-N,?,,"HANSCH,C ET AL. (1995)",3.32
103856,2403-66-9,2403-66-9,[H]OC([H])([H])C([H])([H])C([H])([H])C1=NC2=C([H])C([H])=C([H])C([H])=C2N1[H],2-(G-HYDROXYPROPYL)BENZIMIDAZOLE,2-Benzimidazolepropanol,3-(1H-benzimidazol-2-yl)propan-1-ol,8373,DTXSID40178777,OCCCc1[nH]c2ccccc2[n]1,"InChI=1S/C10H12N2O/c13-7-3-6-10-11-8-4-1-2-5-9(8)12-10/h1-2,4-5,13H,3,6-7H2,(H,11,12)",CQFSGSFSOWEIGO-UHFFFAOYSA-N,?,,"HANSCH,C ET AL. (1995)",1.25
103857,2404-73-1,2404-73-1,[H]C([H])([H])C([H])([H])C([H])([H])C([H])([H])OP(=O)(OC([H])([H])C([H])([H])C([H])([H])C([H])([H])[H])C([H])([H])[H],DIBUTYL METHYLPHOSPHONATE,Dibutyl methylphosphonate,1-(butoxy-methylphosphoryl)oxybutane,8374,DTXSID70178785,CP(=O)(OCCCC)OCCCC,"InChI=1S/C9H21O3P/c1-4-6-8-11-13(3,10)12-9-7-5-2/h4-9H2,1-3H3",NPNBLTJGRBYCJB-UHFFFAOYSA-N,?,,"KRIKORIAN,SE ET AL. (1987)",3.26
103858,2410-24-4,2410-24-4,[H]OC(=O)C([H])(N([H])[H])C([H])([H])C1=C([H])C([H])=C(N([H])[H])C([H])=C1[H],P-AMINOPHENYLALANINE,4-Aminophenylalanine,(2S)-2-amino-3-(4-aminophenyl)propanoic acid,8375,DTXSID90178828,Nc1ccc(CC(N)C(O)=O)cc1,"InChI=1S/C9H12N2O2/c10-7-3-1-6(2-4-7)5-8(11)9(12)13/h1-4,8H,5,10-11H2,(H,12,13)",CMUHFUGDYMFHEI-UHFFFAOYSA-N,?,,"HANSCH,C ET AL. (1995)",-2.2
103860,2420-26-0,2420-26-0,[H]OC1=C([H])C(Cl)=C([H])C([H])=C1C([H])=O,4-CHLOROSALICYLALDEHYDE,4-Chloro-2-hydroxybenzaldehyde,C7H5ClO2,8377,DTXSID50334246,Oc1cc(Cl)ccc1C=O,"InChI=1S/C7H5ClO2/c8-6-2-1-5(4-9)7(10)3-6/h1-4,10H",QNZWAJZEJAOVPN-UHFFFAOYSA-N,?,,BIOBYTE STARLIST (2009),2.49
103861,2424-02-4,22537-07-1,[H]C([H])=C([H])C([H])([H])N([H])C([H])([H])C([H])([H])[H],ALLYLETHYLAMINE,,,8378,DTXSID70336444,CCNCC=C,"InChI=1S/C5H11N/c1-3-5-6-4-2/h3,6H,1,4-5H2,2H3",PUUULGNNRPBVBA-UHFFFAOYSA-N,?,,"HANSCH,C ET AL. (1995)",0.81
103862,2425-06-1,2425-06-1,[H]C1=C([H])C([H])([H])C2([H])C(=O)N(SC(Cl)(Cl)C([H])(Cl)Cl)C(=O)C2([H])C1([H])[H],CAPTAFOL,Captafol,"2-[(1,1,2,2-tetrachloroethyl)sulfanyl]-3a,4,7,7a-tetrahydro-1H-isoindole-1,3(2H)-dione",8379,DTXSID4020242,O=C1C2CC=CCC2C(=O)N1SC(Cl)(Cl)C(Cl)Cl,"InChI=1S/C10H9Cl4NO2S/c11-9(12)10(13,14)18-15-7(16)5-3-1-2-4-6(5)8(15)17/h1-2,5-6,9H,3-4H2",JHRWWRDRBPCWTF-UHFFFAOYSA-N,?,,"TOMLIN,C (1997)",3.8
103864,2426-08-6,2426-08-6,[H]C([H])([H])C([H])([H])C([H])([H])C([H])([H])OC([H])([H])C1([H])OC1([H])[H],GLYCIDYL N-BUTYL ETHER,Butyl glycidyl ether,2-(butoxymethyl)oxirane,8381,DTXSID9024691,CCCCOCC1CO1,"InChI=1S/C7H14O2/c1-2-3-4-8-5-7-6-9-7/h7H,2-6H2,1H3",YSUQLAYJZDEMOT-UHFFFAOYSA-N,?,,"HANSCH,C ET AL. (1995)",0.63