ChemID,source_casrn,CAS,SMILES,NAME,preferred_name,iupac,MPID,dsstox_substance_id,Canonical_QSARr,InChI_Code_QSARr,InChI Key_QSARr,Salt_Solvent,Salt_Solvent_ID,Kow Reference,LogP
100542,83-98-7,83-98-7,[H]C1=C([H])C([H])=C(C([H])(OC([H])([H])C([H])([H])N(C([H])([H])[H])C([H])([H])[H])C2=C([H])C([H])=C([H])C([H])=C2C([H])([H])[H])C([H])=C1[H],ORPHENADRINE,Orphenadrine,"N,N-dimethyl-2-[(2-methylphenyl)(phenyl)methoxy]ethanamine",5191,DTXSID3023396,Cc1ccccc1C(OCCN(C)C)c1ccccc1,"InChI=1S/C18H23NO/c1-15-9-7-8-12-17(15)18(20-14-13-19(2)3)16-10-5-4-6-11-16/h4-12,18H,13-14H2,1-3H3",QVYRGXJJSLMXQH-UHFFFAOYSA-N,?,,SANGSTER (1993),3.77
100543,84-01-5,84-01-5,[H]C1=C([H])C([H])=C2C(=C1[H])SC1=C([H])C([H])=C(Cl)C([H])=C1N2C([H])([H])C([H])([H])C([H])([H])N(C([H])([H])C([H])([H])[H])C([H])([H])C([H])([H])[H],CHLORPROETHAZINE,Chlorproethazine,"3-(2-chlorophenothiazin-10-yl)-N,N-diethylpropan-1-amine",5192,DTXSID80232882,CCN(CCCN1c2ccccc2Sc2ccc(Cl)cc12)CC,"InChI=1S/C19H23ClN2S/c1-3-21(4-2)12-7-13-22-16-8-5-6-9-18(16)23-19-11-10-15(20)14-17(19)22/h5-6,8-11,14H,3-4,7,12-13H2,1-2H3",DBOUGBAQLIXZLV-UHFFFAOYSA-N,?,,SANGSTER (1994),6.46
100544,84-04-8,84-04-8,[H]C1=C([H])C2=C(C([H])=C1[H])N(C([H])([H])C([H])([H])C([H])([H])N1C([H])([H])C([H])([H])C([H])(C(=O)N([H])[H])C([H])([H])C1([H])[H])C1=C([H])C(Cl)=C([H])C([H])=C1S2,PIPAMAZINE,Pipamazine,1-[3-(2-chloro-10H-phenothiazin-10-yl)propyl]piperidine-4-carboxamide,5193,DTXSID3023477,NC(=O)C1CCN(CCCN2c3ccccc3Sc3ccc(Cl)cc23)CC1,"InChI=1S/C21H24ClN3OS/c22-16-6-7-20-18(14-16)25(17-4-1-2-5-19(17)27-20)11-3-10-24-12-8-15(9-13-24)21(23)26/h1-2,4-7,14-15H,3,8-13H2,(H2,23,26)",OSJJYEUEJRVVOD-UHFFFAOYSA-N,?,,"HANSCH,C ET AL. (1995)",4.44
100546,84-51-5,84-51-5,[H]C1=C([H])C([H])=C2C(=O)C3=C([H])C(C([H])([H])C([H])([H])[H])=C([H])C([H])=C3C(=O)C2=C1[H],2-ETHYLANTHRAQUINONE,"2-Ethylanthracene-9,10-dione","2-ethylanthracene-9,10-dione",5195,DTXSID5044994,CCc1cc2c(cc1)C(=O)c1ccccc1C2=O,"InChI=1S/C16H12O2/c1-2-10-7-8-13-14(9-10)16(18)12-6-4-3-5-11(12)15(13)17/h3-9H,2H2,1H3",SJEBAWHUJDUKQK-UHFFFAOYSA-N,?,,"DEBRUIJN,J ET AL. (1989)",4.37
100547,84-65-1,84-65-1,[H]C1=C([H])C([H])=C2C(=O)C3=C([H])C([H])=C([H])C([H])=C3C(=O)C2=C1[H],ANTHRAQUINONE,Anthraquinone,"anthracene-9,10-dione",5196,DTXSID3020095,O=C1c2ccccc2C(=O)c2ccccc12,InChI=1S/C14H8O2/c15-13-9-5-1-2-6-10(9)14(16)12-8-4-3-7-11(12)13/h1-8H,RZVHIXYEVGDQDX-UHFFFAOYSA-N,?,,"HANSCH,C ET AL. (1995)",3.39
100548,84-66-2,84-66-2,[H]C1=C([H])C(C(=O)OC([H])([H])C([H])([H])[H])=C(C(=O)OC([H])([H])C([H])([H])[H])C([H])=C1[H],DIETHYL PHTHALATE,Diethyl phthalate,"diethyl benzene-1,2-dicarboxylate",5197,DTXSID7021780,CCOC(=O)c1ccccc1C(=O)OCC,"InChI=1S/C12H14O4/c1-3-15-11(13)9-7-5-6-8-10(9)12(14)16-4-2/h5-8H,3-4H2,1-2H3",FLKPEMZONWLCSK-UHFFFAOYSA-N,?,,"ELLINGTON,JT & FLOYD,TL (1996)",2.42
100550,84-74-2,84-74-2,[H]C1=C([H])C(C(=O)OC([H])([H])C([H])([H])C([H])([H])C([H])([H])[H])=C(C(=O)OC([H])([H])C([H])([H])C([H])([H])C([H])([H])[H])C([H])=C1[H],DIBUTYL PHTHALATE,Dibutyl phthalate,"dibutyl benzene-1,2-dicarboxylate",5199,DTXSID2021781,CCCCOC(=O)c1ccccc1C(=O)OCCCC,"InChI=1S/C16H22O4/c1-3-5-11-19-15(17)13-9-7-8-10-14(13)16(18)20-12-6-4-2/h7-10H,3-6,11-12H2,1-2H3",DOIRQSBPFJWKBE-UHFFFAOYSA-N,?,,"ELLINGTON,JT & FLOYD,TL (1996)",4.5
100551,84-75-3,84-75-3,[H]C1=C([H])C([H])=C(C(=O)OC([H])([H])C([H])([H])C([H])([H])C([H])([H])C([H])([H])C([H])([H])[H])C(C(=O)OC([H])([H])C([H])([H])C([H])([H])C([H])([H])C([H])([H])C([H])([H])[H])=C1[H],DIHEXYL PHTHALATE,Dihexyl phthalate,"dihexyl benzene-1,2-dicarboxylate",5200,DTXSID6025068,CCCCCCOC(=O)c1ccccc1C(=O)OCCCCCC,"InChI=1S/C20H30O4/c1-3-5-7-11-15-23-19(21)17-13-9-10-14-18(17)20(22)24-16-12-8-6-4-2/h9-10,13-14H,3-8,11-12,15-16H2,1-2H3",KCXZNSGUUQJJTR-UHFFFAOYSA-N,?,,"ELLINGTON,JT & FLOYD,TL (1996)",6.82
100552,84-77-5,84-77-5,[H]C1=C([H])C(C(=O)OC([H])([H])C([H])([H])C([H])([H])C([H])([H])C([H])([H])C([H])([H])C([H])([H])C([H])([H])C([H])([H])C([H])([H])[H])=C(C(=O)OC([H])([H])C([H])([H])C([H])([H])C([H])([H])C([H])([H])C([H])([H])C([H])([H])C([H])([H])C([H])([H])C([H])([H])[H])C([H])=C1[H],DIDECYL PHTHALATE,Didecyl phthalate,"didecyl benzene-1,2-dicarboxylate",5201,DTXSID3026512,CCCCCCCCCCOC(=O)c1ccccc1C(=O)OCCCCCCCCCC,"InChI=1S/C28H46O4/c1-3-5-7-9-11-13-15-19-23-31-27(29)25-21-17-18-22-26(25)28(30)32-24-20-16-14-12-10-8-6-4-2/h17-18,21-22H,3-16,19-20,23-24H2,1-2H3",PGIBJVOPLXHHGS-UHFFFAOYSA-N,?,,"ELLINGTON,JJ (1999)",9.05
100554,84-96-8,84-96-8,[H]C1=C([H])C([H])=C2C(=C1[H])SC1=C(C([H])=C([H])C([H])=C1[H])N2C([H])([H])C([H])(C([H])([H])[H])C([H])([H])N(C([H])([H])[H])C([H])([H])[H],TRIMEPRAZINE,Trimeprazine,"N,N,2-trimethyl-3-(10H-phenothiazin-10-yl)propan-1-amine",5203,DTXSID9023708,CN(C)CC(C)CN1c2ccccc2Sc2ccccc12,"InChI=1S/C18H22N2S/c1-14(12-19(2)3)13-20-15-8-4-6-10-17(15)21-18-11-7-5-9-16(18)20/h4-11,14H,12-13H2,1-3H3",ZZHLYYDVIOPZBE-UHFFFAOYSA-N,?,,"HANSCH,C ET AL. (1995)",4.71
100555,84-97-9,84-97-9,[H]C1=C([H])C([H])=C2C(=C1[H])SC1=C([H])C([H])=C([H])C([H])=C1N2C([H])([H])C([H])([H])C([H])([H])N1C([H])([H])C([H])([H])N(C([H])([H])[H])C([H])([H])C1([H])[H],PERAZINE,Perazine,10-[3-(4-methylpiperazin-1-yl)propyl]-10H-phenothiazine,5204,DTXSID6048628,CN1CCN(CCCN2c3ccccc3Sc3ccccc23)CC1,"InChI=1S/C20H25N3S/c1-21-13-15-22(16-14-21)11-6-12-23-17-7-2-4-9-19(17)24-20-10-5-3-8-18(20)23/h2-5,7-10H,6,11-16H2,1H3",WEYVCQFUGFRXOM-UHFFFAOYSA-N,?,,"MANNHOLD,R ET AL. (1990)",4.0
100556,85-01-8,85-01-8,[H]C1=C([H])C([H])=C2C(=C1[H])C([H])=C([H])C1=C([H])C([H])=C([H])C([H])=C12,PHENANTHRENE,Phenanthrene,phenanthrenato,5205,DTXSID6024254,c1cc2ccccc2c2ccccc21,InChI=1S/C14H10/c1-3-7-13-11(5-1)9-10-12-6-2-4-8-14(12)13/h1-10H,YNPNZTXNASCQKK-UHFFFAOYSA-N,?,,"HANSCH,C ET AL. (1995)",4.46
100558,85-18-7,85-18-7,[H]N1C(Cl)=NC2=C1C(=O)N(C([H])([H])[H])C(=O)N2C([H])([H])[H],8-CHLOROTHEOPHYLLINE,8-Chlorotheophylline,C7H7ClN4O2,5207,DTXSID5043764,CN1C(=O)c2[nH]c(Cl)[n]c2N(C)C1=O,"InChI=1S/C7H7ClN4O2/c1-11-4-3(9-6(8)10-4)5(13)12(2)7(11)14/h1-2H3,(H,9,10)",RYIGNEOBDRVTHA-UHFFFAOYSA-N,?,,SANGSTER (1994); pH 7.4,-0.85
100559,85-34-7,85-34-7,[H]OC(=O)C([H])([H])C1=C(Cl)C([H])=C([H])C(Cl)=C1Cl,FENAC,Chlorfenac,"(2,3,6-trichlorophenyl)acetic acid",5208,DTXSID2040284,OC(=O)Cc1c(Cl)c(Cl)ccc1Cl,"InChI=1S/C8H5Cl3O2/c9-5-1-2-6(10)8(11)4(5)3-7(12)13/h1-2H,3H2,(H,12,13)",QZXCCPZJCKEPSA-UHFFFAOYSA-N,?,,"HANSCH,C ET AL. (1995)",3.2
100560,85-41-6,85-41-6,[H]C1=C([H])C([H])=C2C(=O)N([H])C(=O)C2=C1[H],PHTHALIMIDE,Phthalimide,"1H-isoindole-1,3(2H)-dione",5209,DTXSID3026514,O=C1NC(=O)c2ccccc12,"InChI=1S/C8H5NO2/c10-7-5-3-1-2-4-6(5)8(11)9-7/h1-4H,(H,9,10,11)",XKJCHHZQLQNZHY-UHFFFAOYSA-N,?,,"HANSCH,C ET AL. (1995)",1.15
100562,85-45-0,85-45-0,[H]C1=C([H])C(N([H])[H])=C(OC([H])([H])[H])C([N+](=O)[O-])=C1[H],"BENZENAMINE, 2-METHOXY-3-NITRO-","Benzenamine, 2-methoxy-3-nitro-",2-methoxy-3-nitroaniline,5211,DTXSID1058921,COc1c(N)cccc1[N+]([O-])=O,"InChI=1S/C7H8N2O3/c1-12-7-5(8)3-2-4-6(7)9(10)11/h2-4H,8H2,1H3",GVBUHJSIDPIOBZ-UHFFFAOYSA-N,?,,CHEMICALS INSPECTION AND TESTING INSTITU (1992),1.78
100563,85-68-7,85-68-7,[H]C1=C([H])C([H])=C(C([H])([H])OC(=O)C2=C([H])C([H])=C([H])C([H])=C2C(=O)OC([H])([H])C([H])([H])C([H])([H])C([H])([H])[H])C([H])=C1[H],BUTYL BENZYL PHTHALATE,Butyl benzyl phthalate,"benzyl butyl benzene-1,2-dicarboxylate",5212,DTXSID3020205,CCCCOC(=O)c1ccccc1C(=O)OCc1ccccc1,"InChI=1S/C19H20O4/c1-2-3-13-22-18(20)16-11-7-8-12-17(16)19(21)23-14-15-9-5-4-6-10-15/h4-12H,2-3,13-14H2,1H3",IRIAEXORFWYRCZ-UHFFFAOYSA-N,?,,"ELLINGTON,JT & FLOYD,TL (1996)",4.73
100564,85-79-0,85-79-0,[H]C1=C([H])C([H])=C2C(=C1[H])N=C(OC([H])([H])C([H])([H])C([H])([H])C([H])([H])[H])C([H])=C2C(=O)N([H])C([H])([H])C([H])([H])N(C([H])([H])C([H])([H])[H])C([H])([H])C([H])([H])[H],DIBUCAINE,Dibucaine,2-butoxy-N-[2-(diethylamino)ethyl]quinoline-4-carboxamide,5213,DTXSID3045271,CCCCOc1cc(C(=O)NCCN(CC)CC)c2ccccc2[n]1,"InChI=1S/C20H29N3O2/c1-4-7-14-25-19-15-17(16-10-8-9-11-18(16)22-19)20(24)21-12-13-23(5-2)6-3/h8-11,15H,4-7,12-14H2,1-3H3,(H,21,24)",PUFQVTATUTYEAL-UHFFFAOYSA-N,?,,"HANSCH,C ET AL. (1995)",4.4
100566,86-28-2,86-28-2,[H]C1=C([H])C([H])=C2C(=C1[H])C1=C(C([H])=C([H])C([H])=C1[H])N2C([H])([H])C([H])([H])[H],N-ETHYLCARBAZOL,9-Ethylcarbazole,9-ethyl-9H-carbazole,5215,DTXSID1052585,CC[n]1c2ccccc2c2ccccc12,"InChI=1S/C14H13N/c1-2-15-13-9-5-3-7-11(13)12-8-4-6-10-14(12)15/h3-10H,2H2,1H3",PLAZXGNBGZYJSA-UHFFFAOYSA-N,?,,"RITTER,S ET AL. (1995)",4.49
100567,86-30-6,86-30-6,[H]C1=C([H])C([H])=C(N(N=O)C2=C([H])C([H])=C([H])C([H])=C2[H])C([H])=C1[H],DIPHENYLNITROSAMINE,N-Nitrosodiphenylamine,N-nitroso-N-phenylaniline,5216,DTXSID6021030,O=NN(c1ccccc1)c1ccccc1,InChI=1S/C12H10N2O/c15-13-14(11-7-3-1-4-8-11)12-9-5-2-6-10-12/h1-10H,UBUCNCOMADRQHX-UHFFFAOYSA-N,?,,"HANSCH,C ET AL. (1995)",3.13
100568,86-35-1,86-35-1,[H]C1=C([H])C([H])=C(C2([H])C(=O)N(C([H])([H])C([H])([H])[H])C(=O)N2[H])C([H])=C1[H],"2,4-IMIDAZOLIDINEDIONE, 3-ETHYL-5-PHENYL-",Ethotoin,"3-ethyl-5-phenylimidazolidine-2,4-dione",5217,DTXSID6023020,CCN1C(=O)NC(c2ccccc2)C1=O,"InChI=1S/C11H12N2O2/c1-2-13-10(14)9(12-11(13)15)8-6-4-3-5-7-8/h3-7,9H,2H2,1H3,(H,12,15)",SZQIFWWUIBRPBZ-UHFFFAOYSA-N,?,,SANGSTER (1994),1.05
100570,86-50-0,86-50-0,[H]C1=C([H])C([H])=C2C(=O)N(C([H])([H])SP(=S)(OC([H])([H])[H])OC([H])([H])[H])N=NC2=C1[H],METHYL AZINPHOS,Azinphos-methyl,"O,O-dimethyl S-[(4-oxo-1,2,3-benzotriazin-3(4H)-yl)methyl] phosphorodithioate",5219,DTXSID3020122,COP(=S)(OC)SCN1N=Nc2ccccc2C1=O,"InChI=1S/C10H12N3O3PS2/c1-15-17(18,16-2)19-7-13-10(14)8-5-3-4-6-9(8)11-12-13/h3-6H,7H2,1-2H3",CJJOSEISRRTUQB-UHFFFAOYSA-N,?,,"HANSCH,C ET AL. (1995)",2.75
100571,86-54-4,86-54-4,[H]C1=C2C([H])=C([H])C([H])=C([H])C2=C(N([H])N([H])[H])N=N1,HYDRALAZINE,Hydralazine,1-hydrazinylphthalazine,5220,DTXSID4023129,NNc1[n][n]cc2ccccc21,"InChI=1S/C8H8N4/c9-11-8-7-4-2-1-3-6(7)5-10-12-8/h1-5H,9H2,(H,11,12)",RPTUSVTUFVMDQK-UHFFFAOYSA-N,?,,SANGSTER (1993),1.0
100572,86-55-5,NOCAS_861668,[H]OC(=O)C1=C2C([H])=C([H])C([H])=C([H])C2=C([H])C([H])=C1[H],1-NAPTHOIC ACID,,,5221,DTXSID50861668,OC(=O)c1cccc2ccccc21,"InChI=1S/C11H8O2/c12-11(13)10-7-3-5-8-4-1-2-6-9(8)10/h1-7H,(H,12,13)",LNETULKMXZVUST-UHFFFAOYSA-N,?,,"HANSCH,C ET AL. (1995)",3.1
100574,86-57-7,86-57-7,[H]C1=C([H])C([H])=C2C(=C1[H])C([H])=C([H])C([H])=C2[N+](=O)[O-],1-NITRONAPHTHALENE,1-Nitronaphthalene,1-nitronaphthalene,5223,DTXSID7020978,[O-][N+](=O)c1cccc2ccccc21,InChI=1S/C10H7NO2/c12-11(13)10-7-3-5-8-4-1-2-6-9(8)10/h1-7H,RJKGJBPXVHTNJL-UHFFFAOYSA-N,?,,"HANSCH,C ET AL. (1995)",3.19
100575,86-73-7,86-73-7,[H]C1=C([H])C([H])=C2C(=C1[H])C1=C([H])C([H])=C([H])C([H])=C1C2([H])[H],9H-FLUORENE,Fluorene,9H-fluorene,5224,DTXSID8024105,C1c2ccccc2-c2ccccc21,"InChI=1S/C13H10/c1-3-7-12-10(5-1)9-11-6-2-4-8-13(11)12/h1-8H,9H2",NIHNNTQXNPWCJQ-UHFFFAOYSA-N,?,,"HANSCH,C ET AL. (1995)",4.18
100576,86-74-8,86-74-8,[H]C1=C([H])C([H])=C2C(=C1[H])C1=C([H])C([H])=C([H])C([H])=C1N2[H],CARBAZOLE,Carbazole,9H-carbazole,5225,DTXSID4020248,c1cccc2[nH]c3ccccc3c21,"InChI=1S/C12H9N/c1-3-7-11-9(5-1)10-6-2-4-8-12(10)13-11/h1-8,13H",UJOBWOGCFQCDNV-UHFFFAOYSA-N,?,,"HANSCH,C ET AL. (1995)",3.72
100578,86-87-3,86-87-3,[H]OC(=O)C([H])([H])C1=C([H])C([H])=C([H])C2=C([H])C([H])=C([H])C([H])=C21,NAPHTHALENEACETIC ACID,1-Naphthaleneacetic acid,naphthalen-1-ylacetic acid,5227,DTXSID8020915,OC(=O)Cc1cccc2ccccc21,"InChI=1S/C12H10O2/c13-12(14)8-10-6-3-5-9-4-1-2-7-11(9)10/h1-7H,8H2,(H,13,14)",PRPINYUDVPFIRX-UHFFFAOYSA-N,?,,SANGSTER (1993),2.24
100579,86-88-4,86-88-4,[H]C1=C([H])C([H])=C2C(=C1[H])C([H])=C([H])C([H])=C2N([H])C(=S)N([H])[H],N-1-NAPTHYLTHIOUREA,1-(1-Naphthyl)-2-thiourea,1-naphthalen-1-ylthiourea,5228,DTXSID8020919,NC(=S)Nc1cccc2ccccc21,"InChI=1S/C11H10N2S/c12-11(14)13-10-7-3-5-8-4-1-2-6-9(8)10/h1-7H,(H3,12,13,14)",PIVQQUNOTICCSA-UHFFFAOYSA-N,?,,"GOVERS,H ET AL. (1986)",1.65
100580,86-96-4,86-96-4,[H]C1=C([H])C([H])=C2C(=C1[H])C(=O)N([H])C(=O)N2[H],"7-METHYL QUINAZOLINE-2,4-DIONE","2,4(1H,3H)-Quinazolinedione","1H-quinazoline-2,4-dione",5229,DTXSID30235343,O=C1Nc2ccccc2C(=O)N1,"InChI=1S/C8H6N2O2/c11-7-5-3-1-2-4-6(5)9-8(12)10-7/h1-4H,(H2,9,10,11,12)",SDQJTWBNWQABLE-UHFFFAOYSA-N,?,,"HANSCH,C ET AL. (1995)",0.77
100582,87-08-1,87-08-1,[H]OC(=O)C1([H])N2C(=O)C([H])(N([H])C(=O)C([H])([H])OC3=C([H])C([H])=C([H])C([H])=C3[H])C2([H])SC1(C([H])([H])[H])C([H])([H])[H],PHENOXYMETHYLPENICILLIN,Penicillin V,"(2S,5R,6R)-3,3-dimethyl-7-oxo-6-[(phenoxyacetyl)amino]-4-thia-1-azabicyclo[3.2.0]heptane-2-carboxylic acid",5231,DTXSID3023429,CC1(C)SC2C(NC(=O)COc3ccccc3)C(=O)N2C1C(O)=O,"InChI=1S/C16H18N2O5S/c1-16(2)12(15(21)22)18-13(20)11(14(18)24-16)17-10(19)8-23-9-6-4-3-5-7-9/h3-7,11-12,14H,8H2,1-2H3,(H,17,19)(H,21,22)",BPLBGHOLXOTWMN-UHFFFAOYSA-N,?,,"HANSCH,C ET AL. (1995)",2.09
100583,87-17-2,87-17-2,[H]OC1=C([H])C([H])=C([H])C([H])=C1C(=O)N([H])C1=C([H])C([H])=C([H])C([H])=C1[H],SALICYLANILIDE,Salicylanilide,2-hydroxy-N-phenylbenzamide,5232,DTXSID7021784,Oc1ccccc1C(=O)Nc1ccccc1,"InChI=1S/C13H11NO2/c15-12-9-5-4-8-11(12)13(16)14-10-6-2-1-3-7-10/h1-9,15H,(H,14,16)",WKEDVNSFRWHDNR-UHFFFAOYSA-N,?,,"HANSCH,C ET AL. (1995)",3.27
100584,87-25-2,87-25-2,[H]C1=C([H])C([H])=C(N([H])[H])C(C(=O)OC([H])([H])C([H])([H])[H])=C1[H],"O-AMINOBENZOIC ACID, ETHYL ESTER",Ethyl anthranilate,ethyl 2-aminobenzoate,5233,DTXSID6025272,CCOC(=O)c1ccccc1N,"InChI=1S/C9H11NO2/c1-2-12-9(11)7-5-3-4-6-8(7)10/h3-6H,2,10H2,1H3",TWLLPUMZVVGILS-UHFFFAOYSA-N,?,,"HANSCH,C ET AL. (1995)",2.57
100586,87-40-1,87-40-1,[H]C1=C(Cl)C([H])=C(Cl)C(OC([H])([H])[H])=C1Cl,"2,4,6-TRICHLOROANISOLE","Benzene, 1,3,5-trichloro-2-methoxy-","1,3,5-Trichloro-2-methoxybenzene",5235,DTXSID9073886,COc1c(Cl)cc(Cl)cc1Cl,"InChI=1S/C7H5Cl3O/c1-11-7-5(9)2-4(8)3-6(7)10/h2-3H,1H3",WCVOGSZTONGSQY-UHFFFAOYSA-N,?,,"OPPERHUIZEN,A & VOORS,PI (1987)",4.11
100587,87-41-2,87-41-2,[H]C1=C([H])C2=C(C([H])=C1[H])C([H])([H])OC2=O,PHTHALIDE,Phthalide,2-benzofuran-1(3H)-one,5236,DTXSID0052594,O=C1OCc2ccccc21,"InChI=1S/C8H6O2/c9-8-7-4-2-1-3-6(7)5-10-8/h1-4H,5H2",WNZQDUSMALZDQF-UHFFFAOYSA-N,?,,"HANSCH,C ET AL. (1995)",0.8
100588,87-51-4,87-51-4,[H]OC(=O)C([H])([H])C1=C([H])N([H])C2=C([H])C([H])=C([H])C([H])=C21,INDOLE-3-ACETIC ACID,Indole-3-acetic acid,1H-indol-3-ylacetic acid,5237,DTXSID5020738,OC(=O)Cc1c[nH]c2ccccc21,"InChI=1S/C10H9NO2/c12-10(13)5-7-6-11-9-4-2-1-3-8(7)9/h1-4,6,11H,5H2,(H,12,13)",SEOVTRFCIGRIMH-UHFFFAOYSA-N,?,,"HANSCH,C ET AL. (1995)",1.41
100590,87-62-7,87-62-7,[H]C1=C([H])C(C([H])([H])[H])=C(N([H])[H])C(C([H])([H])[H])=C1[H],"2,6-DIMETHYLANILINE","2,6-Dimethylaniline","2,6-dimethylaniline",5239,DTXSID8026307,Cc1cccc(C)c1N,"InChI=1S/C8H11N/c1-6-4-3-5-7(2)8(6)9/h3-5H,9H2,1-2H3",UFFBMTHBGFGIHF-UHFFFAOYSA-N,?,,BIOBYTE (1995),1.84
100591,87-64-9,87-64-9,[H]OC1=C(Cl)C([H])=C([H])C([H])=C1C([H])([H])[H],2-METHYL-6-CHLOROPHENOL,6-Chloro-o-cresol,2-Chloro-6-methylphenol,5240,DTXSID0075362,Cc1cccc(Cl)c1O,"InChI=1S/C7H7ClO/c1-5-3-2-4-6(8)7(5)9/h2-4,9H,1H3",YPNZJHFXFVLXSE-UHFFFAOYSA-N,?,,"SOTOMATSU,T ET AL. (1993)",2.8
100592,87-65-0,87-65-0,[H]OC1=C(Cl)C([H])=C([H])C([H])=C1Cl,"2,6-DICHLOROPHENOL","2,6-Dichlorophenol","2,6-dichlorophenol",5241,DTXSID2025004,Oc1c(Cl)cccc1Cl,"InChI=1S/C6H4Cl2O/c7-4-2-1-3-5(8)6(4)9/h1-3,9H",HOLHYSJJBXSLMV-UHFFFAOYSA-N,?,,"HANSCH,C ET AL. (1995)",2.75
100594,87-82-1,87-82-1,BrC1=C(Br)C(Br)=C(Br)C(Br)=C1Br,HEXABROMOBENZENE,Hexabromobenzene,hexabromobenzene,5243,DTXSID1024128,Brc1c(Br)c(Br)c(Br)c(Br)c1Br,InChI=1S/C6Br6/c7-1-2(8)4(10)6(12)5(11)3(1)9,CAYGQBVSOZLICD-UHFFFAOYSA-N,?,,"HANSCH,C ET AL. (1995)",6.07
100595,87-84-3,87-84-3,[H]C1(Cl)C([H])(Br)C([H])(Br)C([H])(Br)C([H])(Br)C1([H])Br,"CYCLOHEXANE, 1,2,3,4,5-PENTABROMO-6-CHLORO-",Pentabromochlorocyclohexane,"1,2,3,4,5-pentabromo-6-chlorocyclohexane",5244,DTXSID4025828,ClC1C(Br)C(Br)C(Br)C(Br)C1Br,InChI=1S/C6H6Br5Cl/c7-1-2(8)4(10)6(12)5(11)3(1)9/h1-6H,UZOSVZSBPTTWIG-UHFFFAOYSA-N,?,,CHEMICALS INSPECTION AND TESTING INSTITU (1992),4.72
100596,87-85-4,87-85-4,[H]C([H])([H])C1=C(C([H])([H])[H])C(C([H])([H])[H])=C(C([H])([H])[H])C(C([H])([H])[H])=C1C([H])([H])[H],HEXAMETHYLBENZENE,Hexamethylbenzene,"1,2,3,4,5,6-hexamethylbenzene",5245,DTXSID3058957,Cc1c(C)c(C)c(C)c(C)c1C,InChI=1S/C12H18/c1-7-8(2)10(4)12(6)11(5)9(7)3/h1-6H3,YUWFEBAXEOLKSG-UHFFFAOYSA-N,?,,SANGSTER (1994),5.11
100598,87-91-2,87-91-2,[H]OC([H])(C(=O)OC([H])([H])C([H])([H])[H])C([H])(O[H])C(=O)OC([H])([H])C([H])([H])[H],"TARTARIC ACID, DIETHYL ESTER",Diethyl L-tartrate,"diethyl (2R,3R)-2,3-dihydroxysuccinate",5247,DTXSID5052597,CCOC(=O)C(O)C(O)C(=O)OCC,"InChI=1S/C8H14O6/c1-3-13-7(11)5(9)6(10)8(12)14-4-2/h5-6,9-10H,3-4H2,1-2H3",YSAVZVORKRDODB-UHFFFAOYSA-N,?,,"HANSCH,C ET AL. (1995)",-0.29
100599,88-04-0,88-04-0,[H]OC1=C([H])C(C([H])([H])[H])=C(Cl)C(C([H])([H])[H])=C1[H],"4-CHLORO-3,5-DIMETHYL PHENOL","4-Chloro-3,5-dimethylphenol","4-chloro-3,5-dimethylphenol",5248,DTXSID0032316,Cc1cc(O)cc(C)c1Cl,"InChI=1S/C8H9ClO/c1-5-3-7(10)4-6(2)8(5)9/h3-4,10H,1-2H3",OSDLLIBGSJNGJE-UHFFFAOYSA-N,?,,SANGSTER (2006),3.27
100600,88-06-2,88-06-2,[H]OC1=C(Cl)C([H])=C(Cl)C([H])=C1Cl,"2,4,6-TRICHLOROPHENOL","2,4,6-Trichlorophenol",C6H3Cl3O,5249,DTXSID5021386,Oc1c(Cl)cc(Cl)cc1Cl,"InChI=1S/C6H3Cl3O/c7-3-1-4(8)6(10)5(9)2-3/h1-2,10H",LINPIYWFGCPVIE-UHFFFAOYSA-N,?,,"HANSCH,C ET AL. (1995)",3.69
100602,88-12-0,88-12-0,[H]C([H])=C([H])N1C(=O)C([H])([H])C([H])([H])C1([H])[H],N-VINYL-2-PYRROLIDINONE,N-Vinyl-2-pyrrolidone,1-ethenylpyrrolidin-2-one,5251,DTXSID2021440,C=CN1CCCC1=O,"InChI=1S/C6H9NO/c1-2-7-5-3-4-6(7)8/h2H,1,3-5H2",WHNWPMSKXPGLAX-UHFFFAOYSA-N,?,,"HANSCH,C ET AL. (1995)",0.37
100603,88-13-1,88-13-1,[H]OC(=O)C1=C([H])SC([H])=C1[H],THIOPHENE-3-CARBOXYLIC ACID,3-Thiophenecarboxylic acid,thiophene-3-carboxylic acid,5252,DTXSID40236745,OC(=O)c1cc[s]c1,"InChI=1S/C5H4O2S/c6-5(7)4-1-2-8-3-4/h1-3H,(H,6,7)",YNVOMSDITJMNET-UHFFFAOYSA-N,?,,"HANSCH,C ET AL. (1995)",1.5
100604,88-14-2,88-14-2,[H]OC(=O)C1=C([H])C([H])=C([H])O1,2-FURANCARBOXYLIC ACID,2-Furancarboxylic acid,furan-2-carboxylato,5253,DTXSID6041420,OC(=O)c1ccco1,"InChI=1S/C5H4O3/c6-5(7)4-2-1-3-8-4/h1-3H,(H,6,7)",SMNDYUVBFMFKNZ-UHFFFAOYSA-N,?,,POMONA (1987),0.64
100606,88-16-4,88-16-4,[H]C1=C([H])C(Cl)=C(C(F)(F)F)C([H])=C1[H],CHLORO(TRIFLUOROMETHYL)BENZENE,2-Chlorobenzotrifluoride,1-chloro-2-(trifluoromethyl)benzene,5255,DTXSID9024774,FC(F)(F)c1ccccc1Cl,"InChI=1S/C7H4ClF3/c8-6-4-2-1-3-5(6)7(9,10)11/h1-4H",DGRVQOKCSKDWIH-UHFFFAOYSA-N,?,,"HANSCH,C ET AL. (1995)",3.53
100607,88-17-5,88-17-5,[H]C1=C([H])C([H])=C(C(F)(F)F)C(N([H])[H])=C1[H],"BENZENAMINE, 2-(TRIFLUOROMETHYL)-",o-(Trifluoromethyl)aniline,2-(Trifluoromethyl)aniline,5256,DTXSID7058961,Nc1ccccc1C(F)(F)F,"InChI=1S/C7H6F3N/c8-7(9,10)5-3-1-2-4-6(5)11/h1-4H,11H2",VBLXCTYLWZJBKA-UHFFFAOYSA-N,?,,"HANSCH,C ET AL. (1995)",2.41
100608,88-18-6,88-18-6,[H]OC1=C([H])C([H])=C([H])C([H])=C1C(C([H])([H])[H])(C([H])([H])[H])C([H])([H])[H],O-T-BUTYLPHENOL,2-tert-Butylphenol,2-tert-butylphenol,5257,DTXSID2026525,CC(C)(C)c1ccccc1O,"InChI=1S/C10H14O/c1-10(2,3)8-6-4-5-7-9(8)11/h4-7,11H,1-3H3",WJQOZHYUIDYNHM-UHFFFAOYSA-N,?,,"HANSCH,C ET AL. (1995)",3.31
100610,88-63-1,88-63-1,[H]OS(=O)(=O)C1=C(N([H])[H])C([H])=C(N([H])[H])C([H])=C1[H],"2,4-Diaminobenzenesulfonic acid","2,4-Diaminobenzenesulfonic acid","2,4-diaminobenzenesulfonic acid",5259,DTXSID3044465,Nc1cc(N)c(cc1)S(O)(=O)=O,"InChI=1S/C6H8N2O3S/c7-4-1-2-6(5(8)3-4)12(9,10)11/h1-3H,7-8H2,(H,9,10,11)",JVMSQRAXNZPDHF-UHFFFAOYSA-N,?,,"ZOU,H ET AL. (1995)",-4.65
100611,88-65-3,88-65-3,[H]OC(=O)C1=C([H])C([H])=C([H])C([H])=C1Br,O-BROMOBENZOIC ACID,2-Bromobenzoic acid,2-bromobenzoic acid,5260,DTXSID3038690,OC(=O)c1ccccc1Br,"InChI=1S/C7H5BrO2/c8-6-4-2-1-3-5(6)7(9)10/h1-4H,(H,9,10)",XRXMNWGCKISMOH-UHFFFAOYSA-N,?,,"HANSCH,C ET AL. (1995)",2.2
100612,88-67-5,88-67-5,[H]OC(=O)C1=C(I)C([H])=C([H])C([H])=C1[H],2-IODOBENZOIC ACID,"Benzoic acid, 2-iodo-",2-Iodobenzoic acid,5261,DTXSID6058976,OC(=O)c1ccccc1I,"InChI=1S/C7H5IO2/c8-6-4-2-1-3-5(6)7(9)10/h1-4H,(H,9,10)",CJNZAXGUTKBIHP-UHFFFAOYSA-N,?,,"HANSCH,C ET AL. (1995)",2.4
100614,88-69-7,88-69-7,[H]OC1=C([H])C([H])=C([H])C([H])=C1C([H])(C([H])([H])[H])C([H])([H])[H],O-ISOPROPYLPHENOL,2-Isopropylphenol,2-(propan-2-yl)phenol,5263,DTXSID2044391,CC(C)c1ccccc1O,"InChI=1S/C9H12O/c1-7(2)8-5-3-4-6-9(8)10/h3-7,10H,1-2H3",CRBJBYGJVIBWIY-UHFFFAOYSA-N,?,,"HANSCH,C ET AL. (1995)",2.88