ChemID,source_casrn,CAS,SMILES,NAME,preferred_name,iupac,MPID,dsstox_substance_id,Canonical_QSARr,InChI_Code_QSARr,InChI Key_QSARr,Salt_Solvent,Salt_Solvent_ID,Kow Reference,LogP
101294,117-59-9,117-59-9,[H]OC1=C2C([H])=C([H])C([H])=C(S(=O)(=O)O[H])C2=C([H])C([H])=C1[H],"1-NAPHTHALENESULFONIC ACID, 5-HYDROXY-","1-Naphthalenesulfonic acid, 5-hydroxy-",5-hydroxynaphthalene-1-sulfonic acid,5935,DTXSID0059459,Oc1cccc2c1cccc2S(O)(=O)=O,"InChI=1S/C10H8O4S/c11-9-5-1-4-8-7(9)3-2-6-10(8)15(12,13)14/h1-6,11H,(H,12,13,14)",YLKCHWCYYNKADS-UHFFFAOYSA-N,?,,SANGSTER (1993),-0.17
101296,117-81-7,117-81-7,[H]C1=C([H])C([H])=C(C(=O)OC([H])([H])C([H])(C([H])([H])C([H])([H])[H])C([H])([H])C([H])([H])C([H])([H])C([H])([H])[H])C(C(=O)OC([H])([H])C([H])(C([H])([H])C([H])([H])[H])C([H])([H])C([H])([H])C([H])([H])C([H])([H])[H])=C1[H],BIS(2-ETHYLHEXYL)PHTHALATE,Di(2-ethylhexyl) phthalate,"bis(2-ethylhexyl) benzene-1,2-dicarboxylate",5937,DTXSID5020607,CCCCC(COC(=O)c1ccccc1C(=O)OCC(CCCC)CC)CC,"InChI=1S/C24H38O4/c1-5-9-13-19(7-3)17-27-23(25)21-15-11-12-16-22(21)24(26)28-18-20(8-4)14-10-6-2/h11-12,15-16,19-20H,5-10,13-14,17-18H2,1-4H3",BJQHLKABXJIVAM-UHFFFAOYSA-N,?,,"DEBRUIJN,J ET AL. (1989)",7.6
101297,117-84-0,117-84-0,[H]C1=C([H])C([H])=C(C(=O)OC([H])([H])C([H])([H])C([H])([H])C([H])([H])C([H])([H])C([H])([H])C([H])([H])C([H])([H])[H])C(C(=O)OC([H])([H])C([H])([H])C([H])([H])C([H])([H])C([H])([H])C([H])([H])C([H])([H])C([H])([H])[H])=C1[H],DIOCTYL PHTHALATE,Dioctyl phthalate,"dioctyl benzene-1,2-dicarboxylate",5938,DTXSID1021956,CCCCCCCCOC(=O)c1ccccc1C(=O)OCCCCCCCC,"InChI=1S/C24H38O4/c1-3-5-7-9-11-15-19-27-23(25)21-17-13-14-18-22(21)24(26)28-20-16-12-10-8-6-4-2/h13-14,17-18H,3-12,15-16,19-20H2,1-2H3",MQIUGAXCHLFZKX-UHFFFAOYSA-N,?,,"ELLINGTON,JT & FLOYD,TL (1996)",8.1
101298,117-89-5,117-89-5,[H]C1=C([H])C([H])=C2C(=C1[H])SC1=C([H])C([H])=C(C(F)(F)F)C([H])=C1N2C([H])([H])C([H])([H])C([H])([H])N1C([H])([H])C([H])([H])N(C([H])([H])[H])C([H])([H])C1([H])[H],TRIFLUORPERAZINE,Triphthasine,10-[3-(4-methylpiperazin-1-yl)propyl]-2-(trifluoromethyl)-10H-phenothiazine,5939,DTXSID1046928,CN1CCN(CCCN2c3ccccc3Sc3ccc(cc23)C(F)(F)F)CC1,"InChI=1S/C21H24F3N3S/c1-25-11-13-26(14-12-25)9-4-10-27-17-5-2-3-6-19(17)28-20-8-7-16(15-18(20)27)21(22,23)24/h2-3,5-8,15H,4,9-14H2,1H3",ZEWQUBUPAILYHI-UHFFFAOYSA-N,?,,"HANSCH,C ET AL. (1995)",5.03
101300,118-00-3,NOCAS_861751,[H]OC([H])([H])C1([H])OC([H])(N2C([H])=NC3=C2N=C(N([H])[H])N([H])C3=O)C([H])(O[H])C1([H])O[H],GUANOSINE,,,5941,DTXSID20861751,NC1NC(=O)c2[n]c[n](C3OC(CO)C(O)C3O)c2N=1,"InChI=1S/C10H13N5O5/c11-10-13-7-4(8(19)14-10)12-2-15(7)9-6(18)5(17)3(1-16)20-9/h2-3,5-6,9,16-18H,1H2,(H3,11,13,14,19)",NYHBQMYGNKIUIF-UHFFFAOYSA-N,?,,SANGSTER (1993),-1.9
101302,118-10-5,118-10-5,[H]OC([H])(C1=C([H])C([H])=NC2=C([H])C([H])=C([H])C([H])=C21)C1([H])N2C([H])([H])C([H])([H])C([H])(C1([H])[H])C([H])(C([H])=C([H])[H])C2([H])[H],CINCHONINE,Cinchonine,(9S)-cinchonan-9-ol,5942,DTXSID6045082,C=CC1CN2CCC1CC2C(O)c1cc[n]c2ccccc21,"InChI=1S/C19H22N2O/c1-2-13-12-21-10-8-14(13)11-18(21)19(22)16-7-9-20-17-6-4-3-5-15(16)17/h2-7,9,13-14,18-19,22H,1,8,10-12H2",KMPWYEUPVWOPIM-UHFFFAOYSA-N,?,,SANGSTER (1994),2.68
101303,118-44-5,118-44-5,[H]C1=C([H])C([H])=C2C(=C1[H])C([H])=C([H])C([H])=C2N([H])C([H])([H])C([H])([H])[H],"1-NAPHTHALENAMINE, N-ETHYL-","1-Naphthalenamine, N-ethyl-",N-ethylnaphthalen-1-amine,5943,DTXSID8059473,CCNc1cccc2ccccc21,"InChI=1S/C12H13N/c1-2-13-12-9-5-7-10-6-3-4-8-11(10)12/h3-9,13H,2H2,1H3",KDFFXYVOTKKBDI-UHFFFAOYSA-N,?,,CHEMICALS INSPECTION AND TESTING INSTITU (1992),3.45
101305,118-69-4,118-69-4,[H]C1=C([H])C(Cl)=C(C([H])([H])[H])C(Cl)=C1[H],"2,6-DICHLOROTOLUENE","2,6-Dichlorotoluene","1,3-dichloro-2-methylbenzene",5945,DTXSID3040697,Cc1c(Cl)cccc1Cl,"InChI=1S/C7H6Cl2/c1-5-6(8)3-2-4-7(5)9/h2-4H,1H3",DMEDNTFWIHCBRK-UHFFFAOYSA-N,?,,BIOBYTE (1995),3.99
101306,118-71-8,118-71-8,[H]OC1=C(C([H])([H])[H])OC([H])=C([H])C1=O,"4H-PYRAN-4-ONE, 3-HYDROXY-2-METHYL-",Maltol,3-hydroxy-2-methyl-4H-pyran-4-one,5946,DTXSID0025523,CC1OC=CC(=O)C=1O,"InChI=1S/C6H6O3/c1-4-6(8)5(7)2-3-9-4/h2-3,8H,1H3",XPCTZQVDEJYUGT-UHFFFAOYSA-N,?,,SANGSTER (1993),0.09
101307,118-74-1,118-74-1,ClC1=C(Cl)C(Cl)=C(Cl)C(Cl)=C1Cl,HEXACHLOROBENZENE,Hexachlorobenzene,hexachlorobenzene,5947,DTXSID2020682,Clc1c(Cl)c(Cl)c(Cl)c(Cl)c1Cl,InChI=1S/C6Cl6/c7-1-2(8)4(10)6(12)5(11)3(1)9,CKAPSXZOOQJIBF-UHFFFAOYSA-N,?,,"DEBRUIJN,J ET AL. (1989)",5.73
101309,118-83-2,118-83-2,[H]C1=C(Cl)C([H])=C(C(F)(F)F)C([N+](=O)[O-])=C1[H],4-CHLORO-1-NITRO-2(TRIFLUOROMETHYL)BENZENE,"5-Chloro-alpha,alpha,alpha-trifluoro-2-nitrotoluene",4-chloro-1-nitro-2-(trifluoromethyl)benzene,5949,DTXSID30151998,[O-][N+](=O)c1ccc(Cl)cc1C(F)(F)F,"InChI=1S/C7H3ClF3NO2/c8-4-1-2-6(12(13)14)5(3-4)7(9,10)11/h1-3H",CFPIGEXZPWTNOR-UHFFFAOYSA-N,?,,CHEMICALS INSPECTION AND TESTING INSTITU (1992),3.2
101310,118-90-1,118-90-1,[H]OC(=O)C1=C([H])C([H])=C([H])C([H])=C1C([H])([H])[H],O-TOLUIC ACID,2-Methylbenzoic acid,2-methylbenzoic acid,5950,DTXSID6026161,Cc1ccccc1C(O)=O,"InChI=1S/C8H8O2/c1-6-4-2-3-5-7(6)8(9)10/h2-5H,1H3,(H,9,10)",ZWLPBLYKEWSWPD-UHFFFAOYSA-N,?,,"HANSCH,C ET AL. (1995)",2.46
101311,118-91-2,118-91-2,[H]OC(=O)C1=C(Cl)C([H])=C([H])C([H])=C1[H],2-CHLOROBENZOIC ACID,2-Chlorobenzoic acid,2-chlorobenzoic acid,5951,DTXSID4024771,OC(=O)c1ccccc1Cl,"InChI=1S/C7H5ClO2/c8-6-4-2-1-3-5(6)7(9)10/h1-4H,(H,9,10)",IKCLCGXPQILATA-UHFFFAOYSA-N,?,,"HANSCH,C ET AL. (1995)",2.05
101313,118-93-4,118-93-4,[H]OC1=C(C(=O)C([H])([H])[H])C([H])=C([H])C([H])=C1[H],O-HYDROXYACETOPHENONE,2-Hydroxyacetophenone,1-(2-hydroxyphenyl)ethanone,5953,DTXSID7040285,CC(=O)c1ccccc1O,"InChI=1S/C8H8O2/c1-6(9)7-4-2-3-5-8(7)10/h2-5,10H,1H3",JECYUBVRTQDVAT-UHFFFAOYSA-N,?,,"HANSCH,C ET AL. (1995)",1.92
101314,118-95-6,118-95-6,[H]OC1=C(C([H])(C([H])([H])[H])C([H])([H])[H])C([H])=C([N+](=O)[O-])C([H])=C1[N+](=O)[O-],"2-(1-Methylethyl)-4,6-dinitrophenol","Isopropyl-4,6-dinitrophenol","2,4-dinitro-6-propan-2-ylphenol",5954,DTXSID6074463,CC(C)c1cc(cc(c1O)[N+]([O-])=O)[N+]([O-])=O,"InChI=1S/C9H10N2O5/c1-5(2)7-3-6(10(13)14)4-8(9(7)12)11(15)16/h3-5,12H,1-2H3",HBYHYLBZPLCIEE-UHFFFAOYSA-N,?,,"HANSCH,C ET AL. (1995)",3.1
101315,118-96-7,118-96-7,[H]C1=C([N+](=O)[O-])C([H])=C([N+](=O)[O-])C(C([H])([H])[H])=C1[N+](=O)[O-],"2,4,6-TRINITROTOLUENE","2,4,6-Trinitrotoluene","2-methyl-1,3,5-trinitrobenzene",5955,DTXSID7024372,Cc1c(cc(cc1[N+]([O-])=O)[N+]([O-])=O)[N+]([O-])=O,"InChI=1S/C7H5N3O6/c1-4-6(9(13)14)2-5(8(11)12)3-7(4)10(15)16/h2-3H,1H3",SPSSULHKWOKEEL-UHFFFAOYSA-N,?,,"HANSCH,C ET AL. (1995)",1.6
101317,119-12-0,119-12-0,[H]C1=C([H])C(OP(=S)(OC([H])([H])C([H])([H])[H])OC([H])([H])C([H])([H])[H])=NN(C2=C([H])C([H])=C([H])C([H])=C2[H])C1=O,PYRIDAPHENTHION,Pyridaphenthion,"O,O-diethyl O-(6-oxo-1-phenyl-1,6-dihydropyridazin-3-yl) phosphorothioate",5957,DTXSID2042355,CCOP(=S)(OC1C=CC(=O)N(N=1)c1ccccc1)OCC,"InChI=1S/C14H17N2O4PS/c1-3-18-21(22,19-4-2)20-13-10-11-14(17)16(15-13)12-8-6-5-7-9-12/h5-11H,3-4H2,1-2H3",CXJSOEPQXUCJSA-UHFFFAOYSA-N,?,,"TOMLIN,C (1997)",3.2
101318,119-26-6,119-26-6,[H]C1=C(N([H])N([H])[H])C([N+](=O)[O-])=C([H])C([N+](=O)[O-])=C1[H],"HYDRAZINE, (2,4-DINITROPHENYL)-","2,4-Dinitrophenylhydrazine","(2,4-Dinitrophenyl)hydrazine",5958,DTXSID2059485,NNc1ccc(cc1[N+]([O-])=O)[N+]([O-])=O,"InChI=1S/C6H6N4O4/c7-8-5-2-1-4(9(11)12)3-6(5)10(13)14/h1-3,8H,7H2",HORQAOAYAYGIBM-UHFFFAOYSA-N,?,,"HANSCH,C ET AL. (1995)",1.47
101319,119-30-2,119-30-2,[H]OC(=O)C1=C([H])C(I)=C([H])C([H])=C1O[H],"BENZOIC ACID, 2-HYDROXY-5-IODO-",5-Iodosalicylic acid,2-Hydroxy-5-iodobenzoic acid,5959,DTXSID10152281,Oc1ccc(I)cc1C(O)=O,"InChI=1S/C7H5IO3/c8-4-1-2-6(9)5(3-4)7(10)11/h1-3,9H,(H,10,11)",SWDNKOFGNPGRPI-UHFFFAOYSA-N,?,,SANGSTER (1994),3.34
101321,119-34-6,119-34-6,[H]OC1=C([H])C([H])=C(N([H])[H])C([H])=C1[N+](=O)[O-],"PHENOL, 4-AMINO-2-NITRO-",4-Amino-2-nitrophenol,4-amino-2-nitrophenol,5961,DTXSID6020064,Nc1cc(c(O)cc1)[N+]([O-])=O,"InChI=1S/C6H6N2O3/c7-4-1-2-6(9)5(3-4)8(10)11/h1-3,9H,7H2",WHODQVWERNSQEO-UHFFFAOYSA-N,?,,"BRONAUGH,RL & CONGDON,ER (1984)",0.96
101322,119-36-8,119-36-8,[H]OC1=C([H])C([H])=C([H])C([H])=C1C(=O)OC([H])([H])[H],METHYL SALICYLATE,Methyl salicylate,methyl 2-hydroxybenzoate,5962,DTXSID5025659,COC(=O)c1ccccc1O,"InChI=1S/C8H8O3/c1-11-8(10)6-4-2-3-5-7(6)9/h2-5,9H,1H3",OSWPMRLSEDHDFF-UHFFFAOYSA-N,?,,SANGSTER (1994),2.55
101323,119-39-1,119-39-1,[H]C1=NN([H])C(=O)C2=C1C([H])=C([H])C([H])=C2[H],"1,2(H)-PHTHALAZINONE",1(2H)-Phthalazinone,phthalazin-1(2H)-one,5963,DTXSID4025903,O=C1NN=Cc2ccccc21,"InChI=1S/C8H6N2O/c11-8-7-4-2-1-3-6(7)5-9-10-8/h1-5H,(H,10,11)",IJAPPYDYQCXOEF-UHFFFAOYSA-N,?,,"HANSCH,C ET AL. (1995)",0.75
101325,119-56-2,NOCAS_870472,[H]OC([H])(C1=C([H])C([H])=C([H])C([H])=C1[H])C1=C([H])C([H])=C(Cl)C([H])=C1[H],"BENZENEMETHANOL, 4-CHLORO-.ALPHA.-PHENYL-",,,5965,DTXSID50870472,OC(c1ccccc1)c1ccc(Cl)cc1,"InChI=1S/C13H11ClO/c14-12-8-6-11(7-9-12)13(15)10-4-2-1-3-5-10/h1-9,13,15H",AJYOOHCNOXWTKJ-UHFFFAOYSA-N,?,,CHEMICALS INSPECTION AND TESTING INSTITU (1992),3.61
101326,119-61-9,119-61-9,[H]C1=C([H])C([H])=C(C(=O)C2=C([H])C([H])=C([H])C([H])=C2[H])C([H])=C1[H],BENZOPHENONE,Benzophenone,diphenylmethanone,5966,DTXSID0021961,O=C(c1ccccc1)c1ccccc1,InChI=1S/C13H10O/c14-13(11-7-3-1-4-8-11)12-9-5-2-6-10-12/h1-10H,RWCCWEUUXYIKHB-UHFFFAOYSA-N,?,,"HANSCH,C ET AL. (1995)",3.18
101327,119-64-2,119-64-2,[H]C1=C([H])C([H])=C2C(=C1[H])C([H])([H])C([H])([H])C([H])([H])C2([H])[H],TETRALIN,Tetralin,"1,2,3,4-tetrahydronaphthalene",5967,DTXSID1026118,C1CCCc2ccccc21,"InChI=1S/C10H12/c1-2-6-10-8-4-3-7-9(10)5-1/h1-2,5-6H,3-4,7-8H2",CXWXQJXEFPUFDZ-UHFFFAOYSA-N,?,,"HANSCH,C ET AL. (1995)",3.49
101329,119-75-5,119-75-5,[H]C1=C([H])C([H])=C(N([H])C2=C([N+](=O)[O-])C([H])=C([H])C([H])=C2[H])C([H])=C1[H],2-NITRO-N-PHENYLBENZENAMINE,2-Nitrodiphenylamine,2-nitro-N-phenylaniline,5969,DTXSID4025749,[O-][N+](=O)c1ccccc1Nc1ccccc1,"InChI=1S/C12H10N2O2/c15-14(16)12-9-5-4-8-11(12)13-10-6-2-1-3-7-10/h1-9,13H",RUKISNQKOIKZGT-UHFFFAOYSA-N,?,,"HANSCH,C ET AL. (1995)",3.66
101330,119-81-3,119-81-3,[H]C1=C(OC([H])([H])[H])C([H])=C([N+](=O)[O-])C(N([H])C(=O)C([H])([H])[H])=C1[H],2-NITRO-4-METHOXYACETANILIDE,2'-Nitro-p-acetanisidide,N-(4-methoxy-2-nitrophenyl)acetamide,5970,DTXSID6059499,CC(=O)Nc1ccc(cc1[N+]([O-])=O)OC,"InChI=1S/C9H10N2O4/c1-6(12)10-8-4-3-7(15-2)5-9(8)11(13)14/h3-5H,1-2H3,(H,10,12)",QGEGALJODPBPGR-UHFFFAOYSA-N,?,,"NAKAGAWA,Y ET AL. (1992)",1.09
101331,119-90-4,119-90-4,[H]C1=C([H])C(N([H])[H])=C(OC([H])([H])[H])C([H])=C1C1=C([H])C([H])=C(N([H])[H])C(OC([H])([H])[H])=C1[H],"3,3'-DIMETHOXYBENZIDINE","3,3'-Dimethoxybenzidine","3,3'-dimethoxybiphenyl-4,4'-diamine",5971,DTXSID3025091,COc1cc(ccc1N)-c1cc(OC)c(N)cc1,"InChI=1S/C14H16N2O2/c1-17-13-7-9(3-5-11(13)15)10-4-6-12(16)14(8-10)18-2/h3-8H,15-16H2,1-2H3",JRBJSXQPQWSCCF-UHFFFAOYSA-N,?,,"DEBNATH,AK ET AL. (1992)",1.81
101333,119-93-7,119-93-7,[H]C1=C(C2=C([H])C([H])=C(N([H])[H])C(C([H])([H])[H])=C2[H])C([H])=C(C([H])([H])[H])C(N([H])[H])=C1[H],BIANISIDINE,"3,3'-Dimethylbenzidine","3,3'-dimethylbiphenyl-4,4'-diamine",5973,DTXSID5024059,Cc1cc(ccc1N)-c1cc(C)c(N)cc1,"InChI=1S/C14H16N2/c1-9-7-11(3-5-13(9)15)12-4-6-14(16)10(2)8-12/h3-8H,15-16H2,1-2H3",NUIURNJTPRWVAP-UHFFFAOYSA-N,?,,"HANSCH,C ET AL. (1995)",2.34
101334,120-03-6,120-03-6,[H]C1=C([H])C([H])=C2C(=C1[H])N=C(C1=C([H])C([H])=C(C([H])([H])[H])C([H])=C1[H])N2[H],2-(4-Methylphenyl)-benzimidazole,2-p-Tolyl-1H-benzoimidazole,C14H12N2,5974,DTXSID70352407,Cc1ccc(cc1)-c1[nH]c2ccccc2[n]1,"InChI=1S/C14H12N2/c1-10-6-8-11(9-7-10)14-15-12-4-2-3-5-13(12)16-14/h2-9H,1H3,(H,15,16)",YJSWQFYMPODDTQ-UHFFFAOYSA-N,?,,"ERTEPINAR,H ET AL. (1995)",3.67
101335,120-12-7,120-12-7,[H]C1=C([H])C([H])=C2C([H])=C3C([H])=C([H])C([H])=C([H])C3=C([H])C2=C1[H],ANTHRACENE,Anthracene,anthracene,5975,DTXSID0023878,c1c2ccccc2cc2ccccc21,InChI=1S/C14H10/c1-2-6-12-10-14-8-4-3-7-13(14)9-11(12)5-1/h1-10H,MWPLVEDNUUSJAV-UHFFFAOYSA-N,?,,"HANSCH,C ET AL. (1995)",4.45
101337,120-18-3,120-18-3,[H]OS(=O)(=O)C1=C([H])C([H])=C2C([H])=C([H])C([H])=C([H])C2=C1[H],NAPHTHALENE-2-SULFONIC ACID,Naphthalene-2-sulfonic acid,naphthalene-2-sulfonic acid,5977,DTXSID5044788,OS(=O)(=O)c1cc2ccccc2cc1,"InChI=1S/C10H8O3S/c11-14(12,13)10-6-5-8-3-1-2-4-9(8)7-10/h1-7H,(H,11,12,13)",KVBGVZZKJNLNJU-UHFFFAOYSA-N,?,,"HANSCH,C ET AL. (1995)",0.63
101338,120-20-7,120-20-7,[H]C1=C(OC([H])([H])[H])C(OC([H])([H])[H])=C([H])C(C([H])([H])C([H])([H])N([H])[H])=C1[H],"3,4-DIMETHOXYPHENETHYLAMINE","Benzeneethanamine, 3,4-dimethoxy-","2-(3,4-dimethoxyphenyl)ethanamine",5978,DTXSID8059506,COc1ccc(CCN)cc1OC,"InChI=1S/C10H15NO2/c1-12-9-4-3-8(5-6-11)7-10(9)13-2/h3-4,7H,5-6,11H2,1-2H3",ANOUKFYBOAKOIR-UHFFFAOYSA-N,?,,"HANSCH,C ET AL. (1995)",0.77
101339,120-23-0,120-23-0,[H]OC(=O)C([H])([H])OC1=C([H])C2=C([H])C([H])=C([H])C([H])=C2C([H])=C1[H],"ACETIC ACID, 2-NAPHTHYLOXY-",2-Naphthoxyacetic acid,(naphthalen-2-yloxy)acetic acid,5979,DTXSID2042195,OC(=O)COc1cc2ccccc2cc1,"InChI=1S/C12H10O3/c13-12(14)8-15-11-6-5-9-3-1-2-4-10(9)7-11/h1-7H,8H2,(H,13,14)",RZCJYMOBWVJQGV-UHFFFAOYSA-N,?,,"HANSCH,C ET AL. (1995)",2.53
101341,120-26-3,17279-41-3,[H]C1=C([H])C(C([H])([H])C([H])(N([H])[H])C([H])([H])[H])=C([H])C(OC([H])([H])[H])=C1OC([H])([H])[H],"BENZENEETHANAMINE, 3,4-DIMETHOXY-A-METHYL",17279-41-3,C11H17NO2,5981,DTXSID00455011,CC(N)Cc1cc(OC)c(cc1)OC,"InChI=1S/C11H17NO2/c1-8(12)6-9-4-5-10(13-2)11(7-9)14-3/h4-5,7-8H,6,12H2,1-3H3",KAZPHAGSWZTKDW-UHFFFAOYSA-N,?,,SANGSTER (1993),1.2
101342,120-32-1,120-32-1,[H]OC1=C([H])C([H])=C(Cl)C([H])=C1C([H])([H])C1=C([H])C([H])=C([H])C([H])=C1[H],5-CHLORO-2-HYDROXYDIPHENYLMETHANE,Clorophene,C13H11ClO,5982,DTXSID5020154,Oc1ccc(Cl)cc1Cc1ccccc1,"InChI=1S/C13H11ClO/c14-12-6-7-13(15)11(9-12)8-10-4-2-1-3-5-10/h1-7,9,15H,8H2",NCKMMSIFQUPKCK-UHFFFAOYSA-N,?,,"WERNER,AF ET AL. (1983)",3.6
101344,120-47-8,120-47-8,[H]OC1=C([H])C([H])=C(C(=O)OC([H])([H])C([H])([H])[H])C([H])=C1[H],"P-HYDROXYBENZOIC ACID,ETHYL ESTER",Ethylparaben,ethyl 4-hydroxybenzoate,5983,DTXSID9022528,CCOC(=O)c1ccc(O)cc1,"InChI=1S/C9H10O3/c1-2-12-9(11)7-3-5-8(10)6-4-7/h3-6,10H,2H2,1H3",NUVBSKCKDOMJSU-UHFFFAOYSA-N,?,,"HANSCH,C ET AL. (1995)",2.47
101346,120-54-7,120-54-7,[H]C1([H])N(C(=S)SSSSC(=S)N2C([H])([H])C([H])([H])C([H])([H])C([H])([H])C2([H])[H])C([H])([H])C([H])([H])C([H])([H])C1([H])[H],Thiuram MT,"Tetrasulfane-1,4-diylbis(piperidin-1-ylmethanethione)","tetrasulfane-1,4-diylbis(piperidin-1-ylmethanethione)",5985,DTXSID0044789,S=C(SSSSC(=S)N1CCCCC1)N1CCCCC1,InChI=1S/C12H20N2S6/c15-11(13-7-3-1-4-8-13)17-19-20-18-12(16)14-9-5-2-6-10-14/h1-10H2,VNDRMZTXEFFQDR-UHFFFAOYSA-N,?,,CHEMICALS INSPECTION AND TESTING INSTITU (1992),2.8
101347,120-57-0,120-57-0,[H]C(=O)C1=C([H])C2=C(OC([H])([H])O2)C([H])=C1[H],PIPERONAL,Piperonal,"1,3-benzodioxole-5-carbaldehyde",5986,DTXSID7025924,O=Cc1cc2OCOc2cc1,"InChI=1S/C8H6O3/c9-4-6-1-2-7-8(3-6)11-5-10-7/h1-4H,5H2",SATCULPHIDQDRE-UHFFFAOYSA-N,?,,"HANSCH,C ET AL. (1995)",1.05
101348,120-61-6,120-61-6,[H]C1=C([H])C(C(=O)OC([H])([H])[H])=C([H])C([H])=C1C(=O)OC([H])([H])[H],DIMETHYLTEREPHTHALATE,Dimethyl terephthalate,"dimethyl benzene-1,4-dicarboxylate",5987,DTXSID0020498,COC(=O)c1ccc(cc1)C(=O)OC,"InChI=1S/C10H10O4/c1-13-9(11)7-3-5-8(6-4-7)10(12)14-2/h3-6H,1-2H3",WOZVHXUHUFLZGK-UHFFFAOYSA-N,?,,"HANSCH,C ET AL. (1995)",2.25
101350,120-71-8,120-71-8,[H]C1=C([H])C(C([H])([H])[H])=C([H])C(N([H])[H])=C1OC([H])([H])[H],2-METHOXY-5-METHYLBENZENAMINE,2-Methoxy-5-methylaniline,2-methoxy-5-methylaniline,5989,DTXSID1020350,Cc1ccc(OC)c(N)c1,"InChI=1S/C8H11NO/c1-6-3-4-8(10-2)7(9)5-6/h3-5H,9H2,1-2H3",WXWCDTXEKCVRRO-UHFFFAOYSA-N,?,,"HANSCH,C ET AL. (1995)",1.74
101351,120-72-9,120-72-9,[H]C1=C([H])C([H])=C2C(=C1[H])C([H])=C([H])N2[H],INDOLE,Indole,1H-indole,5990,DTXSID0020737,c1cccc2[nH]ccc21,"InChI=1S/C8H7N/c1-2-4-8-7(3-1)5-6-9-8/h1-6,9H",SIKJAQJRHWYJAI-UHFFFAOYSA-N,?,,"HANSCH,C ET AL. (1995)",2.14
101352,120-73-0,120-73-0,[H]C1=NC([H])=C2N=C([H])N([H])C2=N1,1H-PURINE,Purine,,5991,DTXSID5074470,c1[n]c[n]c2[nH]c[n]c21,"InChI=1S/C5H4N4/c1-4-5(8-2-6-1)9-3-7-4/h1-3H,(H,6,7,8,9)",KDCGOANMDULRCW-UHFFFAOYSA-N,?,,"HANSCH,C ET AL. (1995)",-0.37
101354,120-82-1,120-82-1,[H]C1=C(Cl)C([H])=C(Cl)C(Cl)=C1[H],"1,2,4-TRICHLOROBENZENE","1,2,4-Trichlorobenzene",C6H3Cl3,5993,DTXSID0021965,Clc1cc(Cl)c(Cl)cc1,InChI=1S/C6H3Cl3/c7-4-1-2-5(8)6(9)3-4/h1-3H,PBKONEOXTCPAFI-UHFFFAOYSA-N,?,,"HANSCH,C ET AL. (1995)",4.02
101355,120-83-2,120-83-2,[H]OC1=C([H])C([H])=C(Cl)C([H])=C1Cl,"2,4-DICHLOROPHENOL","2,4-Dichlorophenol","2,4-dichlorophenol",5994,DTXSID1020439,Oc1ccc(Cl)cc1Cl,"InChI=1S/C6H4Cl2O/c7-4-1-2-6(9)5(8)3-4/h1-3,9H",HFZWRUODUSTPEG-UHFFFAOYSA-N,?,,"HANSCH,C ET AL. (1995)",3.06
101356,120-92-3,120-92-3,[H]C1([H])C(=O)C([H])([H])C([H])([H])C1([H])[H],CYCLOPENTANONE,Cyclopentanone,cyclopentanone,5995,DTXSID3029154,O=C1CCCC1,InChI=1S/C5H8O/c6-5-3-1-2-4-5/h1-4H2,BGTOWKSIORTVQH-UHFFFAOYSA-N,?,,DAYLIGHT (2003),0.38
101358,121-14-2,121-14-2,[H]C1=C([N+](=O)[O-])C([H])=C([N+](=O)[O-])C(C([H])([H])[H])=C1[H],"2,4-DINITROTOLUENE","2,4-Dinitrotoluene","1-methyl-2,4-dinitrobenzene",5997,DTXSID0020529,Cc1ccc(cc1[N+]([O-])=O)[N+]([O-])=O,"InChI=1S/C7H6N2O4/c1-5-2-3-6(8(10)11)4-7(5)9(12)13/h2-4H,1H3",RMBFBMJGBANMMK-UHFFFAOYSA-N,?,,"HANSCH,C ET AL. (1995)",1.98
101359,121-21-1,121-21-1,[H]C([H])=C([H])/C([H])=C(\[H])C([H])([H])C1=C(C([H])([H])[H])C([H])(OC(=O)C2([H])C([H])(C([H])=C(C([H])([H])[H])C([H])([H])[H])C2(C([H])([H])[H])C([H])([H])[H])C([H])([H])C1=O,PYRETHRIN I,Pyrethrin I,"(1S)-2-methyl-4-oxo-3-[(2Z)-penta-2,4-dien-1-yl]cyclopent-2-en-1-yl (1R,3R)-2,2-dimethyl-3-(2-methylprop-1-en-1-yl)cyclopropanecarboxylate",5998,DTXSID4034499,CC(C)=CC1C(C(=O)OC2CC(=O)C(CC=CC=C)=C2C)C1(C)C,"InChI=1S/C21H28O3/c1-7-8-9-10-15-14(4)18(12-17(15)22)24-20(23)19-16(11-13(2)3)21(19,5)6/h7-9,11,16,18-19H,1,10,12H2,2-6H3/b9-8+",ROVGZAWFACYCSP-CMDGGOBGSA-N,?,,"TOMLIN,C (1997)",5.9
101360,121-29-9,121-29-9,[H]C([H])=C([H])/C([H])=C(\[H])C([H])([H])C1=C(C([H])([H])[H])C([H])(OC(=O)C2([H])C([H])(/C([H])=C(\C(=O)OC([H])([H])[H])C([H])([H])[H])C2(C([H])([H])[H])C([H])([H])[H])C([H])([H])C1=O,PYRETHRIN II,Pyrethrin II,"(1S)-2-methyl-4-oxo-3-[(2Z)-penta-2,4-dien-1-yl]cyclopent-2-en-1-yl (1R,3R)-3-[(1E)-3-methoxy-2-methyl-3-oxoprop-1-en-1-yl]-2,2-dimethylcyclopropanecarboxylate",5999,DTXSID2042353,COC(=O)C(C)=CC1C(C(=O)OC2CC(=O)C(CC=CC=C)=C2C)C1(C)C,"InChI=1S/C22H28O5/c1-7-8-9-10-15-14(3)18(12-17(15)23)27-21(25)19-16(22(19,4)5)11-13(2)20(24)26-6/h7-9,11,16,18-19H,1,10,12H2,2-6H3/b9-8+,13-11-",VJFUPGQZSXIULQ-PBEXPTJQSA-N,?,,"TOMLIN,C (1997)",4.3
101362,121-32-4,121-32-4,[H]OC1=C([H])C([H])=C(C([H])=O)C([H])=C1OC([H])([H])C([H])([H])[H],"BENZALDEHYDE, 3-ETHOXY-4-HYDROXY-",3-Ethoxy-4-hydroxybenzaldehyde,3-ethoxy-4-hydroxybenzaldehyde,6001,DTXSID5021968,CCOc1cc(C=O)ccc1O,"InChI=1S/C9H10O3/c1-2-12-9-5-7(6-10)3-4-8(9)11/h3-6,11H,2H2,1H3",CBOQJANXLMLOSS-UHFFFAOYSA-N,?,,"BAZACO,JF & COCA,CM (1989)",1.58
101363,121-33-5,121-33-5,[H]OC1=C([H])C([H])=C(C([H])=O)C([H])=C1OC([H])([H])[H],VANILLIN,4-Hydroxy-3-methoxybenzaldehyde,4-hydroxy-3-methoxybenzaldehyde,6002,DTXSID0021969,COc1cc(C=O)ccc1O,"InChI=1S/C8H8O3/c1-11-8-4-6(5-9)2-3-7(8)10/h2-5,10H,1H3",MWOOGOJBHIARFG-UHFFFAOYSA-N,?,,"HANSCH,C ET AL. (1995)",1.21
101364,121-34-6,121-34-6,[H]OC(=O)C1=C([H])C(OC([H])([H])[H])=C(O[H])C([H])=C1[H],4-HYDROXY-3-METHOXYBENZOIC ACID,Vanillic acid,4-Hydroxy-3-methoxybenzoic acid,6003,DTXSID6059522,COc1cc(ccc1O)C(O)=O,"InChI=1S/C8H8O4/c1-12-7-4-5(8(10)11)2-3-6(7)9/h2-4,9H,1H3,(H,10,11)",WKOLLVMJNQIZCI-UHFFFAOYSA-N,?,,"HANSCH,C ET AL. (1995)",1.43
101366,121-46-0,121-46-0,[H]C1=C([H])C2([H])C([H])=C([H])C1([H])C2([H])[H],"BICYCLO(2.2.1)HEPTA-2,5-DIENE","2,5-Norbornadiene","bicyclo[2.2.1]hepta-2,5-diene",6005,DTXSID1059523,C1C2C=CC1C=C2,"InChI=1S/C7H8/c1-2-7-4-3-6(1)5-7/h1-4,6-7H,5H2",SJYNFBVQFBRSIB-UHFFFAOYSA-N,?,,"LODGE,KB (1999)",2.67
101367,121-50-6,121-50-6,[H]C1=C(Cl)C(N([H])[H])=C([H])C(C(F)(F)F)=C1[H],"BENZENAMINE, 2-CHLORO-5-(TRIFLUOROMETHYL)-","Benzenamine, 2-chloro-5-(trifluoromethyl)-",2-Chloro-5-(trifluoromethyl)aniline,6006,DTXSID1059525,Nc1cc(ccc1Cl)C(F)(F)F,"InChI=1S/C7H5ClF3N/c8-5-2-1-4(3-6(5)12)7(9,10)11/h1-3H,12H2",VKTTYIXIDXWHKW-UHFFFAOYSA-N,?,,"HANSCH,C ET AL. (1995)",3.06