ChemID,source_casrn,CAS,SMILES,NAME,preferred_name,iupac,MPID,dsstox_substance_id,Canonical_QSARr,InChI_Code_QSARr,InChI Key_QSARr,Salt_Solvent,Salt_Solvent_ID,Kow Reference,LogP
100377,75-27-4,75-27-4,[H]C(Cl)(Cl)Br,BROMODICHLOROMETHANE,Bromodichloromethane,bromo(dichloro)methane,5033,DTXSID1020198,ClC(Cl)Br,InChI=1S/CHBrCl2/c2-1(3)4/h1H,FMWLUWPQPKEARP-UHFFFAOYSA-N,?,,SANGSTER (1994),2.0
100379,75-29-6,75-29-6,[H]C([H])([H])C([H])(Cl)C([H])([H])[H],2-CHLOROPROPANE,2-Chloropropane,2-chloropropane,5035,DTXSID6047739,CC(C)Cl,"InChI=1S/C3H7Cl/c1-3(2)4/h3H,1-2H3",ULYZAYCEDJDHCC-UHFFFAOYSA-N,?,,"HANSCH,C ET AL. (1995)",1.9
100380,75-30-9,75-30-9,[H]C([H])([H])C([H])(I)C([H])([H])[H],2-IODOPROPANE,"Propane, 2-iodo-",2-IODOPROPANE,5036,DTXSID4058788,CC(C)I,"InChI=1S/C3H7I/c1-3(2)4/h3H,1-2H3",FMKOJHQHASLBPH-UHFFFAOYSA-N,?,,"HANSCH,C ET AL. (1995)",2.89
100381,75-31-0,75-31-0,[H]N([H])C([H])(C([H])([H])[H])C([H])([H])[H],ISOPROPYLAMINE,Isopropylamine,propan-2-amine,5037,DTXSID2025682,CC(C)N,"InChI=1S/C3H9N/c1-3(2)4/h3H,4H2,1-2H3",JJWLVOIRVHMVIS-UHFFFAOYSA-N,?,,"HANSCH,C ET AL. (1995)",0.26
100383,75-35-4,75-35-4,[H]C([H])=C(Cl)Cl,"1,1-DICHLOROETHENE","1,1-Dichloroethylene","1,1-dichloroethene",5039,DTXSID8021438,C=C(Cl)Cl,InChI=1S/C2H2Cl2/c1-2(3)4/h1H2,LGXVIGDEPROXKC-UHFFFAOYSA-N,?,,"HANSCH,C ET AL. (1995)",2.13
100384,75-37-6,75-37-6,[H]C([H])([H])C([H])(F)F,"1,1-DIFLUOROETHANE","1,1-Difluoroethane","1,1-difluoroethane",5040,DTXSID0024050,CC(F)F,"InChI=1S/C2H4F2/c1-2(3)4/h2H,1H3",NPNPZTNLOVBDOC-UHFFFAOYSA-N,?,,"HANSCH,C ET AL. (1995)",0.75
100385,75-38-7,75-38-7,[H]C([H])=C(F)F,"1,1-DIFLUOROETHENE",Vinylidene fluoride,"1,1-difluoroethene",5041,DTXSID3021439,C=C(F)F,InChI=1S/C2H2F2/c1-2(3)4/h1H2,BQCIDUSAKPWEOX-UHFFFAOYSA-N,?,,"HANSCH,C ET AL. (1995)",1.24
100387,75-45-6,75-45-6,[H]C(F)(F)Cl,CHLORODIFLUOROMETHANE,Chlorodifluoromethane,chloro(difluoro)methane,5043,DTXSID6020301,FC(F)Cl,InChI=1S/CHClF2/c2-1(3)4/h1H,VOPWNXZWBYDODV-UHFFFAOYSA-N,?,,"HANSCH,C ET AL. (1995)",1.08
100388,75-46-7,75-46-7,[H]C(F)(F)F,TRIFLUOROMETHANE,Trifluoromethane,trifluoromethane,5044,DTXSID0026410,FC(F)F,InChI=1S/CHF3/c2-1(3)4/h1H,XPDWGBQVDMORPB-UHFFFAOYSA-N,?,,"HANSCH,C ET AL. (1995)",0.64
100389,75-50-3,75-50-3,[H]C([H])([H])N(C([H])([H])[H])C([H])([H])[H],TRIMETHYLAMINE,Trimethylamine,"N,N-dimethylmethanamine",5045,DTXSID2026238,CN(C)C,InChI=1S/C3H9N/c1-4(2)3/h1-3H3,GETQZCLCWQTVFV-UHFFFAOYSA-N,?,,"HANSCH,C ET AL. (1995)",0.16
100391,75-56-9,75-56-9,[H]C([H])([H])C1([H])OC1([H])[H],PROPYLENE OXIDE,"1,2-Propylene oxide",2-methyloxirane,5047,DTXSID5021207,CC1CO1,"InChI=1S/C3H6O/c1-3-2-4-3/h3H,2H2,1H3",GOOHAUXETOMSMM-UHFFFAOYSA-N,?,,"HANSCH,C ET AL. (1995)",0.03
100392,75-63-8,75-63-8,FC(F)(F)Br,BROMOTRIFLUOROMETHANE,Bromotrifluoromethane,bromo(trifluoro)methane,5048,DTXSID5026415,FC(F)(F)Br,"InChI=1S/CBrF3/c2-1(3,4)5",RJCQBQGAPKAMLL-UHFFFAOYSA-N,?,,"HANSCH,C ET AL. (1995)",1.86
100393,75-64-9,75-64-9,[H]N([H])C(C([H])([H])[H])(C([H])([H])[H])C([H])([H])[H],T-BUTYLAMINE,tert-Butylamine,2-methylpropan-2-amine,5049,DTXSID5024681,CC(C)(C)N,"InChI=1S/C4H11N/c1-4(2,3)5/h5H2,1-3H3",YBRBMKDOPFTVDT-UHFFFAOYSA-N,?,,"HANSCH,C ET AL. (1995)",0.4
100395,75-69-4,75-69-4,FC(Cl)(Cl)Cl,TRICHLOROFLUOROMETHANE,Trichlorofluoromethane,trichloro(fluoro)methane,5051,DTXSID5021384,FC(Cl)(Cl)Cl,"InChI=1S/CCl3F/c2-1(3,4)5",CYRMSUTZVYGINF-UHFFFAOYSA-N,?,,"HANSCH,C ET AL. (1995)",2.53
100396,75-71-8,75-71-8,FC(F)(Cl)Cl,DICHLORODIFLUOROMETHANE,Dichlorodifluoromethane,dichloro(difluoro)methane,5052,DTXSID6020436,FC(F)(Cl)Cl,"InChI=1S/CCl2F2/c2-1(3,4)5",PXBRQCKWGAHEHS-UHFFFAOYSA-N,?,,"HANSCH,C ET AL. (1995)",2.16
100397,75-72-9,75-72-9,FC(F)(F)Cl,CHLOROTRIFLUOROMETHANE,Chlorotrifluoromethane,chloro(trifluoro)methane,5053,DTXSID4052500,FC(F)(F)Cl,"InChI=1S/CClF3/c2-1(3,4)5",AFYPFACVUDMOHA-UHFFFAOYSA-N,?,,"HANSCH,C ET AL. (1995)",1.65
100400,75-76-3,75-76-3,[H]C([H])([H])[Si](C([H])([H])[H])(C([H])([H])[H])C([H])([H])[H],TETRAMETHYLSILANE,Tetramethylsilane,tetramethylsilane,5055,DTXSID9026423,C[Si](C)(C)C,"InChI=1S/C4H12Si/c1-5(2,3)4/h1-4H3",CZDYPVPMEAXLPK-UHFFFAOYSA-N,?,,BIOBYTE (1995),3.24
100401,75-80-9,75-80-9,[H]OC([H])([H])C(Br)(Br)Br,"ETHANOL, 2,2,2-TRIBROMO-","2,2,2-Tribromoethanol","2,2,2-tribromoethanol",5056,DTXSID2023698,OCC(Br)(Br)Br,"InChI=1S/C2H3Br3O/c3-2(4,5)1-6/h6H,1H2",YFDSDPIBEUFTMI-UHFFFAOYSA-N,?,,"HANSCH,C ET AL. (1995)",2.1
100402,75-83-2,75-83-2,[H]C([H])([H])C([H])([H])C(C([H])([H])[H])(C([H])([H])[H])C([H])([H])[H],"2,2-DIMETHYLBUTANE","2,2-Dimethylbutane","2,2-dimethylbutane",5057,DTXSID4025111,CCC(C)(C)C,"InChI=1S/C6H14/c1-5-6(2,3)4/h5H2,1-4H3",HNRMPXKDFBEGFZ-UHFFFAOYSA-N,?,,"HANSCH,C ET AL. (1995)",3.82
100404,75-85-4,75-85-4,[H]OC(C([H])([H])[H])(C([H])([H])[H])C([H])([H])C([H])([H])[H],2-METHYL-2-BUTANOL,2-Methyl-2-butanol,2-methylbutan-2-ol,5059,DTXSID0041436,CCC(C)(C)O,"InChI=1S/C5H12O/c1-4-5(2,3)6/h6H,4H2,1-3H3",MSXVEPNJUHWQHW-UHFFFAOYSA-N,?,,"HANSCH,C ET AL. (1995)",0.89
100405,75-87-6,75-87-6,[H]C(=O)C(Cl)(Cl)Cl,TRICHLOROACETALDEHYDE,Chloral,trichloroacetaldehyde,5060,DTXSID7024744,O=CC(Cl)(Cl)Cl,"InChI=1S/C2HCl3O/c3-2(4,5)1-6/h1H",HFFLGKNGCAIQMO-UHFFFAOYSA-N,?,,"HANSCH,C ET AL. (1995)",0.99
100406,75-89-8,75-89-8,[H]OC([H])([H])C(F)(F)F,"2,2,2-TRIFLUOROETHANOL","2,2,2-Trifluoroethanol","2,2,2-trifluoroethanol",5061,DTXSID0021751,OCC(F)(F)F,"InChI=1S/C2H3F3O/c3-2(4,5)1-6/h6H,1H2",RHQDFWAXVIIEBN-UHFFFAOYSA-N,?,,"HANSCH,C ET AL. (1995)",0.41
100408,75-98-9,75-98-9,[H]OC(=O)C(C([H])([H])[H])(C([H])([H])[H])C([H])([H])[H],"2,2-Dimethyl propanoic acid","2,2-Dimethylpropanoic acid","2,2-dimethylpropanoic acid",5063,DTXSID8026432,CC(C)(C)C(O)=O,"InChI=1S/C5H10O2/c1-5(2,3)4(6)7/h1-3H3,(H,6,7)",IUGYQRQAERSCNH-UHFFFAOYSA-N,?,,CHEMICALS INSPECTION AND TESTING INSTITU (1992),1.48
100409,75-99-0,75-99-0,[H]OC(=O)C(Cl)(Cl)C([H])([H])[H],DALAPON,Dalapon,"2,2-dichloropropanoic acid",5064,DTXSID2021575,CC(Cl)(Cl)C(O)=O,"InChI=1S/C3H4Cl2O2/c1-3(4,5)2(6)7/h1H3,(H,6,7)",NDUPDOJHUQKPAG-UHFFFAOYSA-N,?,,"HANSCH,C ET AL. (1995)",0.78
100410,76-01-7,76-01-7,[H]C(Cl)(Cl)C(Cl)(Cl)Cl,PENTACHLOROETHANE,Pentachloroethane,"1,1,1,2,2-pentachloroethane",5065,DTXSID7021104,ClC(Cl)C(Cl)(Cl)Cl,"InChI=1S/C2HCl5/c3-1(4)2(5,6)7/h1H",BNIXVQGCZULYKV-UHFFFAOYSA-N,?,,"HANSCH,C ET AL. (1995)",3.22
100412,76-06-2,76-06-2,O=[N+]([O-])C(Cl)(Cl)Cl,TRICHLORONITROMETHANE,Chloropicrin,trichloro(nitro)methane,5067,DTXSID0020315,[O-][N+](=O)C(Cl)(Cl)Cl,"InChI=1S/CCl3NO2/c2-1(3,4)5(6)7",LFHISGNCFUNFFM-UHFFFAOYSA-N,?,,"HANSCH,C ET AL. (1995)",2.09
100413,76-13-1,76-13-1,FC(F)(Cl)C(F)(Cl)Cl,"1,1,2-TRICHLOROTRIFLUOROETHANE","1,1,2-Trichloro-1,2,2-trifluoroethane","1,1,2-trichloro-1,2,2-trifluoroethane",5068,DTXSID6021377,FC(F)(Cl)C(F)(Cl)Cl,"InChI=1S/C2Cl3F3/c3-1(4,6)2(5,7)8",AJDIZQLSFPQPEY-UHFFFAOYSA-N,?,,"HANSCH,C ET AL. (1995)",3.16
100414,76-14-2,76-14-2,FC(F)(Cl)C(F)(F)Cl,"1,2-DICHLOROTETRAFLUOROETHANE","1,2-Dichloro-1,1,2,2-tetrafluoroethane","1,2-dichloro-1,1,2,2-tetrafluoroethane",5069,DTXSID8026434,FC(F)(Cl)C(F)(F)Cl,"InChI=1S/C2Cl2F4/c3-1(5,6)2(4,7)8",DDMOUSALMHHKOS-UHFFFAOYSA-N,?,,"HANSCH,C ET AL. (1995)",2.82
100416,76-22-2,76-22-2,[H]C([H])([H])C12C(=O)C([H])([H])C([H])(C([H])([H])C1([H])[H])C2(C([H])([H])[H])C([H])([H])[H],CAMPHOR,Camphor,"1,7,7-trimethylbicyclo[2.2.1]heptan-2-one",5071,DTXSID5030955,CC1(C)C2CC(=O)C1(C)CC2,"InChI=1S/C10H16O/c1-9(2)7-4-5-10(9,3)8(11)6-7/h7H,4-6H2,1-3H3",DSSYKIVIOFKYAU-UHFFFAOYSA-N,?,,DAYLIGHT (1999),2.38
100417,76-25-5,76-25-5,[H]OC([H])([H])C(=O)C12OC(C([H])([H])[H])(C([H])([H])[H])OC1([H])C([H])([H])C1([H])C3([H])C([H])([H])C([H])([H])C4=C([H])C(=O)C([H])=C([H])C4(C([H])([H])[H])C3(F)C([H])(O[H])C([H])([H])C21C([H])([H])[H],TRIAMCINOLONE ACETONIDE,Triamcinolone acetonide,"(4aS,4bR,5S,6aS,6bS,9aR,10aS,10bS)-4b-fluoro-5-hydroxy-6b-(hydroxyacetyl)-4a,6a,8,8-tetramethyl-4a,4b,5,6,6a,6b,9a,10,10a,10b,11,12-dodecahydro-2H-naphtho[2',1':4,5]indeno[1,2-d][1,3]dioxol-2-one",5072,DTXSID6021371,CC1(C)OC2(C(CC3C4CCC5=CC(=O)C=CC5(C)C4(F)C(O)CC23C)O1)C(=O)CO,"InChI=1S/C24H31FO6/c1-20(2)30-19-10-16-15-6-5-13-9-14(27)7-8-21(13,3)23(15,25)17(28)11-22(16,4)24(19,31-20)18(29)12-26/h7-9,15-17,19,26,28H,5-6,10-12H2,1-4H3",YNDXUCZADRHECN-UHFFFAOYSA-N,?,,"HANSCH,C ET AL. (1995)",2.53
100418,76-38-0,76-38-0,[H]C([H])([H])OC(F)(F)C([H])(Cl)Cl,METHOXYFLURANE,Methoxyflurane,"2,2-dichloro-1,1-difluoroethyl methyl ether",5073,DTXSID7025556,COC(F)(F)C(Cl)Cl,"InChI=1S/C3H4Cl2F2O/c1-8-3(6,7)2(4)5/h2H,1H3",RFKMCNOHBTXSMU-UHFFFAOYSA-N,?,,"HANSCH,C ET AL. (1995)",2.21
100420,76-43-7,76-43-7,[H]OC1([H])C([H])([H])C2(C([H])([H])[H])C([H])(C([H])([H])C([H])([H])C2(O[H])C([H])([H])[H])C2([H])C([H])([H])C([H])([H])C3=C([H])C(=O)C([H])([H])C([H])([H])C3(C([H])([H])[H])C12F,FLUOXYMESTERONE,Fluoxymestrone,"(11beta,17beta)-9-fluoro-11,17-dihydroxy-17-methylandrost-4-en-3-one",5075,DTXSID8033512,CC1(O)CCC2C3CCC4=CC(=O)CCC4(C)C3(F)C(O)CC12C,"InChI=1S/C20H29FO3/c1-17-8-6-13(22)10-12(17)4-5-15-14-7-9-19(3,24)18(14,2)11-16(23)20(15,17)21/h10,14-16,23-24H,4-9,11H2,1-3H3",YLRFCQOZQXIBAB-UHFFFAOYSA-N,?,,"HANSCH,C ET AL. (1995)",2.38
100421,76-44-8,76-44-8,[H]C1=C([H])C2([H])C3(Cl)C(Cl)=C(Cl)C(Cl)(C3(Cl)Cl)C2([H])C1([H])Cl,HEPTACHLOR,Heptachlor,"1,4,5,6,7,8,8-heptachloro-3a,4,7,7a-tetrahydro-1H-4,7-methanoindene",5076,DTXSID3020679,ClC1(Cl)C2(Cl)C3C=CC(Cl)C3C1(Cl)C(Cl)=C2Cl,"InChI=1S/C10H5Cl7/c11-4-2-1-3-5(4)9(15)7(13)6(12)8(3,14)10(9,16)17/h1-5H",FRCCEHPWNOQAEU-UHFFFAOYSA-N,?,,"SIMPSON,CD ET AL. (1995)",6.1
100423,76-68-6,NOCAS_871549,[H]C([H])=C([H])C([H])([H])C1(C2([H])C([H])=C([H])C([H])([H])C2([H])[H])C(=O)N([H])C(=O)N([H])C1=O,CYCLOPENTABARBITAL,,,5077,DTXSID90871549,C=CCC1(C2CCC=C2)C(=O)NC(=O)NC1=O,"InChI=1S/C12H14N2O3/c1-2-7-12(8-5-3-4-6-8)9(15)13-11(17)14-10(12)16/h2-3,5,8H,1,4,6-7H2,(H2,13,14,15,16,17)",XOVJAYNMQDTIJD-UHFFFAOYSA-N,?,,"HANSCH,C ET AL. (1995)",1.51
100425,76-74-4,76-74-4,[H]OC1=NC(=O)C(C([H])([H])C([H])([H])[H])(C([H])(C([H])([H])[H])C([H])([H])C([H])([H])C([H])([H])[H])C(=O)N1[H],PENTOBARBITAL,Pentobarbital,"5-ethyl-2-hydroxy-5-(pentan-2-yl)pyrimidine-4,6(1H,5H)-dione",5079,DTXSID7023435,CCC1(C(C)CCC)C(=O)NC(O)=NC1=O,"InChI=1S/C11H18N2O3/c1-4-6-7(3)11(5-2)8(14)12-10(16)13-9(11)15/h7H,4-6H2,1-3H3,(H2,12,13,14,15,16)",WEXRUCMBJFQVBZ-UHFFFAOYSA-N,?,,"HANSCH,C ET AL. (1995)",2.1
100426,76-75-5,76-75-5,[H]SC1=NC(=O)C(C([H])([H])C([H])([H])[H])(C([H])(C([H])([H])[H])C([H])([H])C([H])([H])C([H])([H])[H])C(=O)N1[H],THIOPENTAL,Thiopental,"5-ethyl-5-(pentan-2-yl)-2-sulfanylpyrimidine-4,6(1H,5H)-dione",5080,DTXSID1023653,CCC1(C(C)CCC)C(=O)NC(S)=NC1=O,"InChI=1S/C11H18N2O2S/c1-4-6-7(3)11(5-2)8(14)12-10(16)13-9(11)15/h7H,4-6H2,1-3H3,(H2,12,13,14,15,16)",IUJDSEJGGMCXSG-UHFFFAOYSA-N,?,,"HANSCH,C ET AL. (1995)",2.85
100427,76-76-6,76-76-6,[H]N1C(=O)N([H])C(=O)C(C([H])([H])C([H])([H])[H])(C([H])(C([H])([H])[H])C([H])([H])[H])C1=O,PROBARBITAL,Probarbital,"5-ethyl-5-propan-2-yl-1,3-diazinane-2,4,6-trione",5081,DTXSID30226897,CCC1(C(C)C)C(=O)NC(=O)NC1=O,"InChI=1S/C9H14N2O3/c1-4-9(5(2)3)6(12)10-8(14)11-7(9)13/h5H,4H2,1-3H3,(H2,10,11,12,13,14)",HHLXJTDUHFBYAU-UHFFFAOYSA-N,?,,"HANSCH,C ET AL. (1995)",0.97
100429,76-84-6,76-84-6,[H]OC(C1=C([H])C([H])=C([H])C([H])=C1[H])(C1=C([H])C([H])=C([H])C([H])=C1[H])C1=C([H])C([H])=C([H])C([H])=C1[H],TRIPHENYLCARBINOL,"Benzenemethanol, .alpha.,.alpha.-diphenyl-",tri(phenyl)methanol,5083,DTXSID0058803,OC(c1ccccc1)(c1ccccc1)c1ccccc1,"InChI=1S/C19H16O/c20-19(16-10-4-1-5-11-16,17-12-6-2-7-13-17)18-14-8-3-9-15-18/h1-15,20H",LZTRCELOJRDYMQ-UHFFFAOYSA-N,?,,POMONA (1987),3.68
100431,76-93-7,76-93-7,[H]OC(=O)C(O[H])(C1=C([H])C([H])=C([H])C([H])=C1[H])C1=C([H])C([H])=C([H])C([H])=C1[H],BENZILIC ACID,Benzilic acid,"2-hydroxy-2,2-di(phenyl)acetic acid",5084,DTXSID0058805,OC(=O)C(O)(c1ccccc1)c1ccccc1,"InChI=1S/C14H12O3/c15-13(16)14(17,11-7-3-1-4-8-11)12-9-5-2-6-10-12/h1-10,17H,(H,15,16)",UKXSKSHDVLQNKG-UHFFFAOYSA-N,?,,"HANSCH,C ET AL. (1995)",2.3
100432,76-94-8,76-94-8,[H]C1=C([H])C([H])=C(C2(C([H])([H])[H])C(=O)N([H])C(=O)N([H])C2=O)C([H])=C1[H],"BARBITURIC ACID,5-ME-5-PHENYL-",Phenylmethylbarbituric acid,"5-methyl-5-phenyl-1,3-diazinane-2,4,6-trione",5085,DTXSID00226900,CC1(c2ccccc2)C(=O)NC(=O)NC1=O,"InChI=1S/C11H10N2O3/c1-11(7-5-3-2-4-6-7)8(14)12-10(16)13-9(11)15/h2-6H,1H3,(H2,12,13,14,15,16)",LSAOZCAKUIANSQ-UHFFFAOYSA-N,?,,"PRANKERD,RJ & MCKEOWN,RH (1992)",0.91
100434,77-02-1,77-02-1,[H]C([H])=C([H])C([H])([H])C1(C([H])(C([H])([H])[H])C([H])([H])[H])C(=O)N([H])C(=O)N([H])C1=O,APROBARBITAL,Aprobarbital,"5-(propan-2-yl)-5-(prop-2-en-1-yl)pyrimidine-2,4,6(1H,3H,5H)-trione",5087,DTXSID8022616,CC(C)C1(CC=C)C(=O)NC(=O)NC1=O,"InChI=1S/C10H14N2O3/c1-4-5-10(6(2)3)7(13)11-9(15)12-8(10)14/h4,6H,1,5H2,2-3H3,(H2,11,12,13,14,15)",UORJNBVJVRLXMQ-UHFFFAOYSA-N,?,,"HANSCH,C ET AL. (1995)",1.15
100435,77-06-5,77-06-5,[H]OC(=O)C1([H])C2([H])C3(OC(=O)C2(C([H])([H])[H])C([H])(O[H])C([H])=C3[H])C2([H])C([H])([H])C([H])([H])C3(O[H])C(=C([H])[H])C([H])([H])C12C3([H])[H],GIBBERELLIC ACID,Gibberellic acid,"(1S,2S,4aR,4bR,7S,9aS,10S,10aR)-2,7-dihydroxy-1-methyl-8-methylidene-13-oxo-1,2,4b,5,6,7,8,9,10,10a-decahydro-4a,1-(epoxymethano)-7,9a-methanobenzo[a]azulene-10-carboxylic acid",5088,DTXSID0020656,CC12C3C(C(O)=O)C45CC(O)(CCC4C3(C=CC1O)OC2=O)C(=C)C5,"InChI=1S/C19H22O6/c1-9-7-17-8-18(9,24)5-3-10(17)19-6-4-11(20)16(2,15(23)25-19)13(19)12(17)14(21)22/h4,6,10-13,20,24H,1,3,5,7-8H2,2H3,(H,21,22)",IXORZMNAPKEEDV-UHFFFAOYSA-N,?,,"HANSCH,C ET AL. (1995)",0.24
100436,77-07-6,77-07-6,[H]OC1=C([H])C([H])=C2C(=C1[H])C13C([H])([H])C([H])([H])N(C([H])([H])[H])C([H])(C2([H])[H])C1([H])C([H])([H])C([H])([H])C([H])([H])C3([H])[H],LEVORPHANOL,Levorphanol,17-methylmorphinan-3-ol,5089,DTXSID3023213,CN1CCC23CCCCC2C1Cc1ccc(O)cc31,"InChI=1S/C17H23NO/c1-18-9-8-17-7-3-2-4-14(17)16(18)10-12-5-6-13(19)11-15(12)17/h5-6,11,14,16,19H,2-4,7-10H2,1H3",JAQUASYNZVUNQP-UHFFFAOYSA-N,?,,"HANSCH,C ET AL. (1995)",3.11
100438,77-10-1,77-10-1,[H]C1=C([H])C([H])=C(C2(N3C([H])([H])C([H])([H])C([H])([H])C([H])([H])C3([H])[H])C([H])([H])C([H])([H])C([H])([H])C([H])([H])C2([H])[H])C([H])=C1[H],Phencyclidine,Phencyclidine,1-(1-phenylcyclohexyl)piperidine,5091,DTXSID6023446,C1CCCCN1C1(CCCCC1)c1ccccc1,"InChI=1S/C17H25N/c1-4-10-16(11-5-1)17(12-6-2-7-13-17)18-14-8-3-9-15-18/h1,4-5,10-11H,2-3,6-9,12-15H2",JTJMJGYZQZDUJJ-UHFFFAOYSA-N,?,,SANGSTER (1994); ion-corrected avg,4.69
100439,77-20-3,77-20-3,[H]C1=C([H])C([H])=C(C2(OC(=O)C([H])([H])C([H])([H])[H])C([H])([H])C([H])([H])N(C([H])([H])[H])C([H])([H])C2([H])C([H])([H])[H])C([H])=C1[H],ALPHAPRODINE,Alphaprodine,"(3S,4R)-1,3-dimethyl-4-phenylpiperidin-4-yl propanoate",5092,DTXSID4022575,CCC(=O)OC1(CCN(C)CC1C)c1ccccc1,"InChI=1S/C16H23NO2/c1-4-15(18)19-16(14-8-6-5-7-9-14)10-11-17(3)12-13(16)2/h5-9,13H,4,10-12H2,1-3H3",UVAZQQHAVMNMHE-UHFFFAOYSA-N,?,,"HANSCH,C ET AL. (1995)",2.83
100440,77-21-4,77-21-4,[H]C1=C([H])C([H])=C(C2(C([H])([H])C([H])([H])[H])C(=O)N([H])C(=O)C([H])([H])C2([H])[H])C([H])=C1[H],2-ETHYL-2-PHENYLGLUTERIMIDE,Glutethimide,"3-ethyl-3-phenylpiperidine-2,6-dione",5093,DTXSID1023102,CCC1(CCC(=O)NC1=O)c1ccccc1,"InChI=1S/C13H15NO2/c1-2-13(10-6-4-3-5-7-10)9-8-11(15)14-12(13)16/h3-7H,2,8-9H2,1H3,(H,14,15,16)",JMBQKKAJIKAWKF-UHFFFAOYSA-N,?,,"HANSCH,C ET AL. (1995)",1.9
100442,77-28-1,77-28-1,[H]N1C(=O)N([H])C(=O)C(C([H])([H])C([H])([H])[H])(C([H])([H])C([H])([H])C([H])([H])C([H])([H])[H])C1=O,5-BUTYL-5-ETHYLBARBITURIC ACID,Butethal [NF],"5-butyl-5-ethyl-1,3-diazinane-2,4,6-trione",5095,DTXSID70227808,CCCCC1(CC)C(=O)NC(=O)NC1=O,"InChI=1S/C10H16N2O3/c1-3-5-6-10(4-2)7(13)11-9(15)12-8(10)14/h3-6H2,1-2H3,(H2,11,12,13,14,15)",STDBAQMTJLUMFW-UHFFFAOYSA-N,?,,"HANSCH,C ET AL. (1995)",1.73
100443,77-30-5,77-30-5,[H]N1C(=O)N([H])C(=O)C(C([H])([H])C([H])([H])[H])(C([H])([H])C([H])([H])C([H])([H])C([H])([H])C([H])([H])C([H])([H])[H])C1=O,5-ETHYL-5-HEXYLBARBITURIC ACID,Hexethal,"5-ethyl-5-hexyl-1,3-diazinane-2,4,6-trione",5096,DTXSID30227809,CCCCCCC1(CC)C(=O)NC(=O)NC1=O,"InChI=1S/C12H20N2O3/c1-3-5-6-7-8-12(4-2)9(15)13-11(17)14-10(12)16/h3-8H2,1-2H3,(H2,13,14,15,16,17)",PSTVHRSUNBSVIJ-UHFFFAOYSA-N,?,,"HANSCH,C ET AL. (1995)",2.46
100444,77-32-7,77-32-7,[H]N1C(=O)C(C([H])([H])C([H])([H])[H])(C([H])([H])C([H])([H])[H])C(=O)N([H])C1=S,THIOBARBITAL,Thiobarbital,"5,5-diethyl-2-sulfanylidene-1,3-diazinane-4,6-dione",5097,DTXSID40227810,CCC1(CC)C(=O)NC(=S)NC1=O,"InChI=1S/C8H12N2O2S/c1-3-8(4-2)5(11)9-7(13)10-6(8)12/h3-4H2,1-2H3,(H2,9,10,11,12,13)",QGVNJRROSLYGKF-UHFFFAOYSA-N,?,,"WONG,O & MCKEOWN,RH (1988)",1.5
100446,77-47-4,77-47-4,ClC1=C(Cl)C(Cl)(Cl)C(Cl)=C1Cl,HEXACHLOROCYCLOPENTADIENE,Hexachlorocyclopentadiene,"1,2,3,4,5,5-hexachlorocyclopenta-1,3-diene",5099,DTXSID2020688,ClC1(Cl)C(Cl)=C(Cl)C(Cl)=C1Cl,"InChI=1S/C5Cl6/c6-1-2(7)4(9)5(10,11)3(1)8",VUNCWTMEJYMOOR-UHFFFAOYSA-N,?,,"HANSCH,C ET AL. (1995)",5.04
100448,77-65-6,77-65-6,[H]N([H])C(=O)N([H])C(=O)C(Br)(C([H])([H])C([H])([H])[H])C([H])([H])C([H])([H])[H],CARBROMAL,Carbromal,2-bromo-N-carbamoyl-2-ethylbutanamide,5100,DTXSID8020252,CCC(Br)(CC)C(=O)NC(N)=O,"InChI=1S/C7H13BrN2O2/c1-3-7(8,4-2)5(11)10-6(9)12/h3-4H2,1-2H3,(H3,9,10,11,12)",OPNPQXLQERQBBV-UHFFFAOYSA-N,?,,"HANSCH,C ET AL. (1995)",1.54
100449,77-67-8,77-67-8,[H]N1C(=O)C([H])([H])C(C([H])([H])[H])(C([H])([H])C([H])([H])[H])C1=O,ETHOSUXIMIDE,Ethosuximide,"3-ethyl-3-methylpyrrolidine-2,5-dione",5101,DTXSID7023019,CCC1(C)CC(=O)NC1=O,"InChI=1S/C7H11NO2/c1-3-7(2)4-5(9)8-6(7)10/h3-4H2,1-2H3,(H,8,9,10)",HAPOVYFOVVWLRS-UHFFFAOYSA-N,?,,"ATKINSON,HC & BERG,EJ (1988)",0.38
100451,77-81-6,77-81-6,[H]C([H])([H])N(C([H])([H])[H])P(=O)(C#N)OC([H])([H])C([H])([H])[H],TABUN,,,5103,DTXSID80861631,CCOP(=O)(C#N)N(C)C,"InChI=1S/C5H11N2O2P/c1-4-9-10(8,5-6)7(2)3/h4H2,1-3H3",PJVJTCIRVMBVIA-UHFFFAOYSA-N,?,,"MUNRO,NB ET AL. (1999)",0.38
100452,77-92-9,77-92-9,[H]OC(=O)C([H])([H])C(O[H])(C(=O)O[H])C([H])([H])C(=O)O[H],CITRIC ACID,Citric acid,"2-hydroxypropane-1,2,3-tricarboxylic acid",5104,DTXSID3020332,OC(=O)C(O)(CC(O)=O)CC(O)=O,"InChI=1S/C6H8O7/c7-3(8)1-6(13,5(11)12)2-4(9)10/h13H,1-2H2,(H,7,8)(H,9,10)(H,11,12)",KRKNYBCHXYNGOX-UHFFFAOYSA-N,?,,"AVDEEF,A (1997)",-1.64
100453,77-99-6,77-99-6,[H]OC([H])([H])C(C([H])([H])O[H])(C([H])([H])O[H])C([H])([H])C([H])([H])[H],"1,1,1-TRIS(HYDROXYMETHYL)PROPANE","2-Ethyl-2-(hydroxymethyl)-1,3-propanediol","2-ethyl-2-(hydroxymethyl)propane-1,3-diol",5105,DTXSID2026448,CCC(CO)(CO)CO,"InChI=1S/C6H14O3/c1-2-6(3-7,4-8)5-9/h7-9H,2-5H2,1H3",ZJCCRDAZUWHFQH-UHFFFAOYSA-N,?,,TSCATS,-1.48
100456,78-38-6,78-38-6,[H]C([H])([H])C([H])([H])OP(=O)(OC([H])([H])C([H])([H])[H])C([H])([H])C([H])([H])[H],"Phosphonic acid, ethyl-, diethyl ester",Diethyl ethylphosphonate,diethyl ethylphosphonate,5107,DTXSID7025051,CCP(=O)(OCC)OCC,"InChI=1S/C6H15O3P/c1-4-8-10(7,6-3)9-5-2/h4-6H2,1-3H3",AATNZNJRDOVKDD-UHFFFAOYSA-N,?,,"KRIKORIAN,SE ET AL. (1987)",0.66
100457,78-40-0,78-40-0,[H]C([H])([H])C([H])([H])OP(=O)(OC([H])([H])C([H])([H])[H])OC([H])([H])C([H])([H])[H],TRIETHYL PHOSPHATE,Triethyl phosphate,triethyl phosphate,5108,DTXSID8026228,CCOP(=O)(OCC)OCC,"InChI=1S/C6H15O4P/c1-4-8-11(7,9-5-2)10-6-3/h4-6H2,1-3H3",DQWPFSLDHJDLRL-UHFFFAOYSA-N,?,,"HANSCH,C ET AL. (1995)",0.8
100458,78-48-8,78-48-8,[H]C([H])([H])C([H])([H])C([H])([H])C([H])([H])SP(=O)(SC([H])([H])C([H])([H])C([H])([H])C([H])([H])[H])SC([H])([H])C([H])([H])C([H])([H])C([H])([H])[H],TRIBUFOS,Tribufos,"S,S,S-tributyl phosphorotrithioate",5109,DTXSID1024174,CCCCSP(=O)(SCCCC)SCCCC,"InChI=1S/C12H27OPS3/c1-4-7-10-15-14(13,16-11-8-5-2)17-12-9-6-3/h4-12H2,1-3H3",ZOKXUAHZSKEQSS-UHFFFAOYSA-N,?,,ENVIRON RES LAB (1981),5.7
100460,78-59-1,78-59-1,[H]C1=C(C([H])([H])[H])C([H])([H])C(C([H])([H])[H])(C([H])([H])[H])C([H])([H])C1=O,ISOPHORONE,Isophorone,"3,5,5-trimethylcyclohex-2-en-1-one",5111,DTXSID8020759,CC1CC(C)(C)CC(=O)C=1,"InChI=1S/C9H14O/c1-7-4-8(10)6-9(2,3)5-7/h4H,5-6H2,1-3H3",HJOVHMDZYOCNQW-UHFFFAOYSA-N,?,,"VEITH,GD ET AL. (1980)",1.7
100461,78-62-6,78-62-6,[H]C([H])([H])C([H])([H])O[Si](OC([H])([H])C([H])([H])[H])(C([H])([H])[H])C([H])([H])[H],DIMETHYL DIETHOXYSILANE,Diethoxy(dimethyl)silane,diethoxy(dimethyl)silane,5112,DTXSID6052538,C[Si](C)(OCC)OCC,"InChI=1S/C6H16O2Si/c1-5-7-9(3,4)8-6-2/h5-6H2,1-4H3",YYLGKUPAFFKGRQ-UHFFFAOYSA-N,?,,"HANSCH,C ET AL. (1995)",0.61