ChemID,source_casrn,CAS,SMILES,NAME,preferred_name,iupac,MPID,dsstox_substance_id,Canonical_QSARr,InChI_Code_QSARr,InChI Key_QSARr,Salt_Solvent,Salt_Solvent_ID,Kow Reference,LogP
103402,1608-68-0,1608-68-0,[H]C1=C([H])C([H])=C(C([H])(C([H])([H])[H])C([H])([H])[H])C(OC(=O)C([H])([H])[H])=C1[H],2-ISOPROPYLPHENYL ACETATE,2-isopropyl-phenyl acetate,C11H14O2,7944,DTXSID50323599,CC(=O)Oc1ccccc1C(C)C,"InChI=1S/C11H14O2/c1-8(2)10-6-4-5-7-11(10)13-9(3)12/h4-8H,1-3H3",ILKITZBHQBDKCB-UHFFFAOYSA-N,?,,"HANSCH,C ET AL. (1995)",2.78
103404,1610-17-9,1610-17-9,[H]N(C1=NC(OC([H])([H])[H])=NC(N([H])C([H])(C([H])([H])[H])C([H])([H])[H])=N1)C([H])([H])C([H])([H])[H],ATRATONE,Atraton,"N-ethyl-6-methoxy-N'-(propan-2-yl)-1,3,5-triazine-2,4-diamine",7946,DTXSID0037493,CCNc1[n]c(NC(C)C)[n]c([n]1)OC,"InChI=1S/C9H17N5O/c1-5-10-7-12-8(11-6(2)3)14-9(13-7)15-4/h6H,5H2,1-4H3,(H2,10,11,12,13,14)",PXWUKZGIHQRDHL-UHFFFAOYSA-N,?,,"FINIZIO,A ET AL. (1991)",2.69
103405,1610-18-0,1610-18-0,[H]N(C1=NC(OC([H])([H])[H])=NC(N([H])C([H])(C([H])([H])[H])C([H])([H])[H])=N1)C([H])(C([H])([H])[H])C([H])([H])[H],PROMETON,Prometon,"6-methoxy-N,N'-di(propan-2-yl)-1,3,5-triazine-2,4-diamine",7947,DTXSID6022341,COc1[n]c(NC(C)C)[n]c(NC(C)C)[n]1,"InChI=1S/C10H19N5O/c1-6(2)11-8-13-9(12-7(3)4)15-10(14-8)16-5/h6-7H,1-5H3,(H2,11,12,13,14,15)",ISEUFVQQFVOBCY-UHFFFAOYSA-N,?,,"FINIZIO,A ET AL. (1991)",2.99
103406,1611-38-7,1611-38-7,[H]C1=C([H])C(/C([H])=C(\[H])C(=O)C([H])([H])[H])=C([H])C([H])=C1F,"3-Buten-2-one,4-(4-fluorophenyl)-",,,7948,DTXSID90876251,CC(=O)C=Cc1ccc(F)cc1,"InChI=1S/C10H9FO/c1-8(12)2-3-9-4-6-10(11)7-5-9/h2-7H,1H3/b3-2+",IXOKEPVAYTWJGM-NSCUHMNNSA-N,?,,"YAMAGAMI,C ET AL. (1998)",2.22
103408,1612-15-3,1612-15-3,[H]C1=C([H])C([H])=C([H])C2=NN(C([H])(C([H])([H])[H])C([H])([H])C(=O)OC([H])([H])C([H])([H])[H])N=C21,"2H-BENZOTRIAZOLE-2-PROPANOIC ACID, ?-METHYL-, ET",,,7950,DTXSID90874318,CCOC(=O)CC(C)[n]1[n]c2ccccc2[n]1,"InChI=1S/C12H15N3O2/c1-3-17-12(16)8-9(2)15-13-10-6-4-5-7-11(10)14-15/h4-7,9H,3,8H2,1-2H3",SMXNKLBUKYXTBX-UHFFFAOYSA-N,?,,"SPARATORE,F ET AL. (1988)",2.7
103409,1613-37-2,1613-37-2,[O-][N+]1=CC=CC2=CC=CC=C21,QUINOLINE-1-OXIDE,Quinoline 1-oxide,1-oxidoquinolin-1-ium,7951,DTXSID00167107,[O-][n+]1cccc2ccccc12,InChI=1S/C9H7NO/c11-10-7-3-5-8-4-1-2-6-9(8)10/h1-7H,GIIWGCBLYNDKBO-UHFFFAOYSA-N,?,,"HANSCH,C ET AL. (1995)",0.36
103410,1615-06-1,1615-06-1,[H]C1=C([H])C([H])=C2C(=C1[H])N([H])S(=O)(=O)N2[H],"1,3-DIHYDRO-BENZOTHIADIAZOL,22-O2","1H,3H-2,1,3-Benzothiadiazole 2,2-dioxide","1,3-dihydrobenzo[c][1,2,5]thiadiazole 2,2-dioxide",7952,DTXSID10167158,O=S1(=O)Nc2ccccc2N1,"InChI=1S/C6H6N2O2S/c9-11(10)7-5-3-1-2-4-6(5)8-11/h1-4,7-8H",AUAGRMVWKUSEBX-UHFFFAOYSA-N,?,,"HANSCH,C ET AL. (1995)",1.12
103413,1617-93-2,1617-93-2,[H]C1=C([H])C([H])=C(C([H])([H])C([H])([H])C2=NN=C(N([H])[H])O2)C([H])=C1[H],"1,3,4-OXADIAZOL-2-AMINE, 5-(2-PHENYLETHYL)-",PUBCHEM_14199524,C10H11N3O,7954,DTXSID00557286,Nc1[n][n]c(CCc2ccccc2)o1,"InChI=1S/C10H11N3O/c11-10-13-12-9(14-10)7-6-8-4-2-1-3-5-8/h1-5H,6-7H2,(H2,11,13)",HOUJXRMAYWZMHT-UHFFFAOYSA-N,?,,SANGSTER (1993),1.19
103414,1620-75-3,1620-75-3,[H]C1=C([H])C([H])=C(C([H])([H])[H])N=C1C#N,2-CYANO-6-METHYLPYRIDINE,6-Methylpyridine-2-carbonitrile,6-Methylpyridine-2-carbonitrile,7955,DTXSID60167284,Cc1cccc(C#N)[n]1,"InChI=1S/C7H6N2/c1-6-3-2-4-7(5-8)9-6/h2-4H,1H3",CMADFEQMYFNYCF-UHFFFAOYSA-N,?,,"HANSCH,C ET AL. (1995)",0.84
103415,1622-57-7,1622-57-7,[H]C1=C([H])C([H])=C2C(=C1[H])N=C(N([H])[H])N2C([H])([H])[H],1-METHYL-2-AMINOBENZIMIDAZOLE,"1H-Benzimidazol-2-amine, 1-methyl-",1-methylbenzimidazol-2-amine,7956,DTXSID10167330,C[n]1c(N)[n]c2ccccc12,"InChI=1S/C8H9N3/c1-11-7-5-3-2-4-6(7)10-8(11)9/h2-5H,1H3,(H2,9,10)",XDFZKQJLNGNJAN-UHFFFAOYSA-N,?,,"HANSCH,C ET AL. (1995)",0.95
103417,1622-62-4,1622-62-4,[H]C1=C([H])C(F)=C(C2=NC([H])([H])C(=O)N(C([H])([H])[H])C3=C([H])C([H])=C([N+](=O)[O-])C([H])=C23)C([H])=C1[H],FLUNITRAZEPAM,Flunitrazepam,"5-(2-fluorophenyl)-1-methyl-7-nitro-1,3-dihydro-2H-1,4-benzodiazepin-2-one",7958,DTXSID7023065,CN1c2ccc(cc2C(=NCC1=O)c1ccccc1F)[N+]([O-])=O,"InChI=1S/C16H12FN3O3/c1-19-14-7-6-10(20(22)23)8-12(14)16(18-9-15(19)21)11-4-2-3-5-13(11)17/h2-8H,9H2,1H3",PPTYJKAXVCCBDU-UHFFFAOYSA-N,?,,"HANSCH,C ET AL. (1995)",2.06
103418,1623-19-4,1623-19-4,[H]C([H])=C([H])C([H])([H])OP(=O)(OC([H])([H])C([H])=C([H])[H])OC([H])([H])C([H])=C([H])[H],TRIALLYLPHOSPHATE,Triallyl phosphate,triprop-2-enyl phosphate,7959,DTXSID5061827,C=CCOP(=O)(OCC=C)OCC=C,"InChI=1S/C9H15O4P/c1-4-7-11-14(10,12-8-5-2)13-9-6-3/h4-6H,1-3,7-9H2",XHGIFBQQEGRTPB-UHFFFAOYSA-N,?,,CHEMICALS INSPECTION AND TESTING INSTITU (1992),1.76
103419,1627-73-2,1627-73-2,[H]C1=C([H])C([H])=C(/C([H])=N/N([H])C(=S)N([H])[H])C([H])=C1[H],BENZALDEHYDE THIOSEMICARBAZONE,,,7960,DTXSID40879419,NC(=S)NN=Cc1ccccc1,"InChI=1S/C8H9N3S/c9-8(12)11-10-6-7-4-2-1-3-5-7/h1-6H,(H3,9,11,12)/b10-6+",UYHCMAZIKNVDSX-UXBLZVDNSA-N,?,,"HANSCH,C ET AL. (1995)",1.86
103421,1632-76-4,1632-76-4,[H]C1=NN=C(C([H])([H])[H])C([H])=C1[H],"PYRIDAZINE, 3-METHYL-",3-Methylpyridazine,3-Methylpyridazine,7962,DTXSID80167529,Cc1ccc[n][n]1,"InChI=1S/C5H6N2/c1-5-3-2-4-6-7-5/h2-4H,1H3",MXDRPNGTQDRKQM-UHFFFAOYSA-N,?,,"YAMAGAMI,C ET AL. (1990)",-0.35
103422,1633-22-3,1633-22-3,[H]C1=C([H])C2=C([H])C([H])=C1C([H])([H])C([H])([H])C1=C([H])C([H])=C(C([H])=C1[H])C([H])([H])C2([H])[H],PARACYCLOPHANE,"Tricyclo[8.2.2.24,7]hexadeca-4,6,10,12,13,15-hexaene",,7963,DTXSID9061835,C1Cc2ccc(CCc3ccc1cc3)cc2,"InChI=1S/C16H16/c1-2-14-4-3-13(1)9-10-15-5-7-16(8-6-15)12-11-14/h1-8H,9-12H2",OOLUVSIJOMLOCB-UHFFFAOYSA-N,?,,BIOBYTE STARLIST (2009),4.33
103423,1633-44-9,1633-44-9,[H]C1=NC([H])=C(C#N)C(C#N)=C1[H],"3,4-PYRIDINEDICARBONITRILE","Pyridine-3,4-dicarbonitrile","Pyridine-3,4-dicarbonitrile",7964,DTXSID70167558,N#Cc1cc[n]cc1C#N,"InChI=1S/C7H3N3/c8-3-6-1-2-10-5-7(6)4-9/h1-2,5H",ALJUMASAQKRVRM-UHFFFAOYSA-N,?,,"HANSCH,C ET AL. (1995)",0.24
103425,1636-33-5,1636-33-5,[H]C1=C([H])C2=C([H])C([H])=C(N=C=S)C([H])=C2C([H])=C1[H],2-ISOTHIOCYANONAPHTHALENE,,,7966,DTXSID30876634,S=C=Nc1cc2ccccc2cc1,InChI=1S/C11H7NS/c13-8-12-11-6-5-9-3-1-2-4-10(9)7-11/h1-7H,RTMXPNYHPHIDHX-UHFFFAOYSA-N,?,,"HANSCH,C ET AL. (1995)",4.34
103426,1638-22-8,1638-22-8,[H]OC1=C([H])C([H])=C(C([H])([H])C([H])([H])C([H])([H])C([H])([H])[H])C([H])=C1[H],P-BUTYLPHENOL,4-Butylphenol,4-butylphenol,7967,DTXSID3047425,CCCCc1ccc(O)cc1,"InChI=1S/C10H14O/c1-2-3-4-9-5-7-10(11)8-6-9/h5-8,11H,2-4H2,1H3",CYYZDBDROVLTJU-UHFFFAOYSA-N,?,,SANGSTER (1993),3.65
103427,1639-32-3,1639-32-3,[H]C1=C([H])C(C([H])([H])[H])=C(C([H])([H])[H])C(C([H])([H])[H])=C1N([H])C(=O)C([H])([H])[H],"2,3,4-Trimethylacetanilide",,,7968,DTXSID00876500,Cc1ccc(NC(C)=O)c(C)c1C,"InChI=1S/C11H15NO/c1-7-5-6-11(12-10(4)13)9(3)8(7)2/h5-6H,1-4H3,(H,12,13)",LCFTZRFEJFVCDE-UHFFFAOYSA-N,?,,"NAKAGAWA,Y ET AL. (1992)",1.76
103429,1643-15-8,1643-15-8,[H]OC(=O)C([H])([H])OC1=C([H])C([H])=C([H])C(C([H])([H])[H])=C1[H],M-METHYLPHENOXYACETIC,3-Methylphenoxyacetic acid,2-(3-methylphenoxy)acetic acid,7970,DTXSID4075110,Cc1cc(ccc1)OCC(O)=O,"InChI=1S/C9H10O3/c1-7-3-2-4-8(5-7)12-6-9(10)11/h2-5H,6H2,1H3,(H,10,11)",VZECTCSEONQIPP-UHFFFAOYSA-N,?,,"HANSCH,C ET AL. (1995)",1.78
103430,1643-16-9,1643-16-9,[H]OC(=O)C([H])([H])OC1=C([H])C([H])=C(C([H])(C([H])([H])[H])C([H])([H])[H])C([H])=C1[H],P-I-PROPYLPHENOXYACETIC ACID,4-Isopropylphenoxyacetic acid,2-(4-propan-2-ylphenoxy)acetic acid,7971,DTXSID10167739,CC(C)c1ccc(cc1)OCC(O)=O,"InChI=1S/C11H14O3/c1-8(2)9-3-5-10(6-4-9)14-7-11(12)13/h3-6,8H,7H2,1-2H3,(H,12,13)",FPVCSFOUVDLTDG-UHFFFAOYSA-N,?,,"HANSCH,C ET AL. (1995)",2.69
103431,1646-27-1,1646-27-1,[H]C1=C([H])C([H])=C2C([H])=C(C(=O)OC([H])([H])[H])OC2=C1[H],"2-BENZOFURANCARBOXYLIC ACID, METHYL ESTER",methyl 1-benzofuran-2-carboxylate,C10H8O3,7972,DTXSID10303014,COC(=O)c1cc2ccccc2o1,"InChI=1S/C10H8O3/c1-12-10(11)9-6-7-4-2-3-5-8(7)13-9/h2-6H,1H3",GIJIKNIHYNIDSJ-UHFFFAOYSA-N,?,,"YAMAGAMI,C ET AL. (1992)",2.53
103433,1649-18-9,1649-18-9,[H]C1=C([H])C([H])=C([H])C(N2C([H])([H])C([H])([H])N(C([H])([H])C([H])([H])C([H])([H])C(=O)C3=C([H])C([H])=C(F)C([H])=C3[H])C([H])([H])C2([H])[H])=N1,AZAPERONE,Azaperone,1-(4-fluorophenyl)-4-[4-(pyridin-2-yl)piperazin-1-yl]butan-1-one,7974,DTXSID2045361,O=C(CCCN1CCN(CC1)c1cccc[n]1)c1ccc(F)cc1,"InChI=1S/C19H22FN3O/c20-17-8-6-16(7-9-17)18(24)4-3-11-22-12-14-23(15-13-22)19-5-1-2-10-21-19/h1-2,5-10H,3-4,11-15H2",XTKDAFGWCDAMPY-UHFFFAOYSA-N,?,,"HANSCH,C ET AL. (1995)",3.3
103434,1655-52-3,1655-52-3,[H]OC(=O)C([H])(N([H])C1=C([N+](=O)[O-])C([H])=C([N+](=O)[O-])C([H])=C1[H])C([H])([H])[H],"N-(2,4-DINITROPHENYL)ALANINE",,,7975,DTXSID50875866,CC(Nc1ccc(cc1[N+]([O-])=O)[N+]([O-])=O)C(O)=O,"InChI=1S/C9H9N3O6/c1-5(9(13)14)10-7-3-2-6(11(15)16)4-8(7)12(17)18/h2-5,10H,1H3,(H,13,14)",KKHLKORVTUUSBC-UHFFFAOYSA-N,?,,BIOBYTE STARLIST (2009),2.09
103435,1655-57-8,1655-57-8,[H]OC(=O)C([H])(N([H])C1=C([N+](=O)[O-])C([H])=C([N+](=O)[O-])C([H])=C1[H])C([H])([H])C([H])(C([H])([H])[H])C([H])([H])[H],"N-(2,4-DINITROPHENYL)LEUCINE",,,7976,DTXSID20874321,CC(C)CC(Nc1ccc(cc1[N+]([O-])=O)[N+]([O-])=O)C(O)=O,"InChI=1S/C12H15N3O6/c1-7(2)5-10(12(16)17)13-9-4-3-8(14(18)19)6-11(9)15(20)21/h3-4,6-7,10,13H,5H2,1-2H3,(H,16,17)",STMDPCBYJCIZOD-UHFFFAOYSA-N,?,,BIOBYTE STARLIST (2009),3.25
103438,1670-84-4,1670-84-4,[H]C1=C([H])C([H])=C2C(=C1[H])C([H])=C(C(=O)N([H])[H])N2[H],1H-INDOLE-2-CARBOXAMIDE,1H-Indole-2-carboxamide,C9H8N2O,7978,DTXSID50344168,NC(=O)c1cc2ccccc2[nH]1,"InChI=1S/C9H8N2O/c10-9(12)8-5-6-3-1-2-4-7(6)11-8/h1-5,11H,(H2,10,12)",VFHUJFBEFDVZPJ-UHFFFAOYSA-N,?,,SANGSTER (1994),1.61
103439,1670-86-6,1670-86-6,[H]C1=C([H])C2=C(C([H])=C([H])N2[H])C(C(=O)N([H])[H])=C1[H],INDOLE-4-CARBOXAMIDE,1H-Indole-4-carboxamide,C9H8N2O,7979,DTXSID80344171,NC(=O)c1cccc2[nH]ccc12,"InChI=1S/C9H8N2O/c10-9(12)7-2-1-3-8-6(7)4-5-11-8/h1-5,11H,(H2,10,12)",ACRGIRLCXXEJCS-UHFFFAOYSA-N,?,,"HANSCH,C ET AL. (1995)",0.66
103440,1670-87-7,1670-87-7,[H]C1=C([H])C2=C(C([H])=C1C(=O)N([H])[H])C([H])=C([H])N2[H],INDOLE-5-CARBOXAMIDE,PUBCHEM_14973220,C9H8N2O,7980,DTXSID50566323,NC(=O)c1cc2cc[nH]c2cc1,"InChI=1S/C9H8N2O/c10-9(12)7-1-2-8-6(5-7)3-4-11-8/h1-5,11H,(H2,10,12)",GQMYQEAXTITUAE-UHFFFAOYSA-N,?,,"HANSCH,C ET AL. (1995)",0.87
103442,1672-46-4,1672-46-4,[H]OC1([H])C([H])([H])C([H])([H])C2(C([H])([H])[H])C([H])(C([H])([H])C([H])([H])C3([H])C2([H])C([H])([H])C([H])(O[H])C2(C([H])([H])[H])C([H])(C4=C([H])C(=O)OC4([H])[H])C([H])([H])C([H])([H])C32O[H])C1([H])[H],DIGOXIGENIN,Digoxigenin,"(3beta,5beta,12beta)-3,12,14-trihydroxycard-20(22)-enolide",7982,DTXSID6051778,CC12CCC(O)CC1CCC1C2CC(O)C2(C)C(CCC21O)C1COC(=O)C=1,"InChI=1S/C23H34O5/c1-21-7-5-15(24)10-14(21)3-4-17-18(21)11-19(25)22(2)16(6-8-23(17,22)27)13-9-20(26)28-12-13/h9,14-19,24-25,27H,3-8,10-12H2,1-2H3",SHIBSTMRCDJXLN-UHFFFAOYSA-N,?,,"HANSCH,C ET AL. (1995)",1.1
103443,1673-47-8,1673-47-8,[H]C1=C([H])C(C(=O)N([H])N([H])[H])=C([H])C(Cl)=C1[H],"BENZOYLHYDRAZINE, M-CHLORO",3-Chlorobenzohydrazide,3-Chlorobenzohydrazide,7983,DTXSID20168272,NNC(=O)c1cccc(Cl)c1,"InChI=1S/C7H7ClN2O/c8-6-3-1-2-5(4-6)7(11)10-9/h1-4H,9H2,(H,10,11)",PHRDZSRVSVNQRN-UHFFFAOYSA-N,?,,"HANSCH,C ET AL. (1995)",1.18
103445,1677-27-6,1677-27-6,[H]C1=C([H])C([H])=C2C(=O)SSC2=C1[H],"1,2-Benzodithiol-3-one",Benzodithiolone,"1,2-benzodithiol-3-one",7984,DTXSID20168358,O=C1SSc2ccccc21,InChI=1S/C7H4OS2/c8-7-5-3-1-2-4-6(5)9-10-7/h1-4H,GZTYTTPPCAXUHB-UHFFFAOYSA-N,?,,"BONA,M ET AL. (1995)",2.73
103447,1678-91-7,1678-91-7,[H]C([H])([H])C([H])([H])C1([H])C([H])([H])C([H])([H])C([H])([H])C([H])([H])C1([H])[H],ETHYLCYCLOHEXANE,Ethylcyclohexane,ethylcyclohexane,7986,DTXSID1051779,CCC1CCCCC1,"InChI=1S/C8H16/c1-2-8-6-4-3-5-7-8/h8H,2-7H2,1H3",IIEWJVIFRVWJOD-UHFFFAOYSA-N,?,,"RITTER,S ET AL. (1995)",4.56
103448,1680-21-3,1680-21-3,[H]C([H])=C([H])C(=O)OC([H])([H])C([H])([H])OC([H])([H])C([H])([H])OC([H])([H])C([H])([H])OC(=O)C([H])=C([H])[H],"2-PROPENOIC ACID, 1,2-ETHANEDIYLBIS(OXY-2,1-ETHA",Triethylene glycol diacrylate,"ethane-1,2-diylbis(oxyethane-2,1-diyl) bisacrylate",7987,DTXSID0051780,C=CC(=O)OCCOCCOCCOC(=O)C=C,"InChI=1S/C12H18O6/c1-3-11(13)17-9-7-15-5-6-16-8-10-18-12(14)4-2/h3-4H,1-2,5-10H2",INQDDHNZXOAFFD-UHFFFAOYSA-N,?,,SANGSTER (1993),0.96
103449,1680-44-0,1680-44-0,[H]C1=NN([H])N=C1C1=C([H])C([H])=C([H])C([H])=C1[H],"1H-1,2,3-TRIAZOLE, 4-PHENYL-","1H-1,2,3-Triazole, 4-phenyl-",4-phenyl-2H-triazole,7988,DTXSID20168459,c1[n][nH][n]c1-c1ccccc1,"InChI=1S/C8H7N3/c1-2-4-7(5-3-1)8-6-9-11-10-8/h1-6H,(H,9,10,11)",LUEYUHCBBXWTQT-UHFFFAOYSA-N,?,,SANGSTER (1993),1.91
103451,1689-83-4,1689-83-4,[H]OC1=C(I)C([H])=C(C#N)C([H])=C1I,IOXYNIL,Ioxynil,"4-hydroxy-3,5-diiodobenzonitrile",7990,DTXSID8022161,N#Cc1cc(I)c(O)c(I)c1,"InChI=1S/C7H3I2NO/c8-5-1-4(3-10)2-6(9)7(5)11/h1-2,11H",NRXQIUSYPAHGNM-UHFFFAOYSA-N,?,,"COMER,J ET AL. (1995)",3.43
103452,1689-99-2,1689-99-2,[H]C1=C(Br)C(OC(=O)C([H])([H])C([H])([H])C([H])([H])C([H])([H])C([H])([H])C([H])([H])C([H])([H])[H])=C(Br)C([H])=C1C#N,BROMOXYNIL OCTANOATE,Bromoxynil octanoate,"2,6-dibromo-4-cyanophenyl octanoate",7991,DTXSID7023932,CCCCCCCC(=O)Oc1c(Br)cc(cc1Br)C#N,"InChI=1S/C15H17Br2NO2/c1-2-3-4-5-6-7-14(19)20-15-12(16)8-11(10-18)9-13(15)17/h8-9H,2-7H2,1H3",DQKWXTIYGWPGOO-UHFFFAOYSA-N,?,,"TOMLIN,C (2003)",5.4
103454,1694-97-9,1694-97-9,[H]OC(=O)C([H])(N([H])C1=C([N+](=O)[O-])C([H])=C([N+](=O)[O-])C([H])=C1[H])C([H])(C([H])([H])[H])C([H])([H])[H],"N-(2,4-DINITROPHENYL)VALINE",,,7992,DTXSID00874203,CC(C)C(Nc1ccc(cc1[N+]([O-])=O)[N+]([O-])=O)C(O)=O,"InChI=1S/C11H13N3O6/c1-6(2)10(11(15)16)12-8-4-3-7(13(17)18)5-9(8)14(19)20/h3-6,10,12H,1-2H3,(H,15,16)",AYLCDVYHZOZQKM-UHFFFAOYSA-N,?,,BIOBYTE STARLIST (2009),2.88
103456,1696-17-9,1696-17-9,[H]C1=C([H])C([H])=C(C(=O)N(C([H])([H])C([H])([H])[H])C([H])([H])C([H])([H])[H])C([H])=C1[H],"N,N-DIETHYLBENZAMIDE","N,N-Diethylbenzamide","N,N-diethylbenzamide",7994,DTXSID0051784,CCN(CC)C(=O)c1ccccc1,"InChI=1S/C11H15NO/c1-3-12(4-2)11(13)10-8-6-5-7-9-10/h5-9H,3-4H2,1-2H3",JLNGEXDJAQASHD-UHFFFAOYSA-N,?,,"HANSCH,C ET AL. (1995)",1.25
103457,1697-18-3,1697-18-3,[H]OC1=C(C(=O)N([H])C2=C(Cl)C([H])=C([H])C([H])=C2[H])C([H])=C([H])C([H])=C1[H],2'-CL SALICYLANILIDE,,,7995,DTXSID60877093,Oc1ccccc1C(=O)Nc1ccccc1Cl,"InChI=1S/C13H10ClNO2/c14-10-6-2-3-7-11(10)15-13(17)9-5-1-4-8-12(9)16/h1-8,16H,(H,15,17)",KFIQAGIXMXTUIM-UHFFFAOYSA-N,?,,"TERADA,H ET AL. (1988)",4.35
103458,1698-53-9,1698-53-9,[H]C1=NN(C2=C([H])C([H])=C([H])C([H])=C2[H])C(=O)C(Cl)=C1Cl,"2-Phenyl-4,5-dichloro-3-pyridazinone","2-Phenyl-4,5-dichloro-3-pyridazinone","4,5-Dichloro-2-phenylpyridazin-3-one",7996,DTXSID60168751,O=C1C(Cl)=C(Cl)C=NN1c1ccccc1,InChI=1S/C10H6Cl2N2O/c11-8-6-13-14(10(15)9(8)12)7-4-2-1-3-5-7/h1-6H,VKWCOHVAHQOJGU-UHFFFAOYSA-N,?,,IUCLID (2000) EINECS No. 216-917-6,2.09
103460,1698-62-0,1698-62-0,[H]C1=NN(C2=C([H])C([H])=C([H])C([H])=C2[H])C(=O)C(Cl)=C1N([H])C([H])([H])[H],"3(2H)-PYRIDAZINONE, 4-CHLORO-5-(METHYLAMINO)-2-P",4-Chloro-5-(methylamino)-2-phenyl-3(2H)-pyridazinone,4-chloro-5-methylamino-2-phenylpyridazin-3-one,7998,DTXSID9075119,CNC1C=NN(C(=O)C=1Cl)c1ccccc1,"InChI=1S/C11H10ClN3O/c1-13-9-7-14-15(11(16)10(9)12)8-5-3-2-4-6-8/h2-7,13H,1H3",PVAJKGQADFDSFN-UHFFFAOYSA-N,?,,SANGSTER (1994),1.19
103461,1701-69-5,1701-69-5,[H]C1=NC([H])=C([H])C(C(=O)C([H])([H])C([H])([H])[H])=C1[H],ETHYL-4-PYRIDYL KETONE,"1-Propanone, 1-(4-pyridyl)-",1-pyridin-4-ylpropan-1-one,7999,DTXSID00168795,CCC(=O)c1cc[n]cc1,"InChI=1S/C8H9NO/c1-2-8(10)7-3-5-9-6-4-7/h3-6H,2H2,1H3",AFHFHXVRHACYSR-UHFFFAOYSA-N,?,,"HANSCH,C ET AL. (1995)",0.77
103462,1702-17-6,1702-17-6,[H]OC(=O)C1=NC(Cl)=C([H])C([H])=C1Cl,"3,6-DICHLOROPICOLINIC ACID",Clopyralid,C6H3Cl2NO2,8000,DTXSID9029221,OC(=O)c1[n]c(Cl)ccc1Cl,"InChI=1S/C6H3Cl2NO2/c7-3-1-2-4(8)9-5(3)6(10)11/h1-2H,(H,10,11)",HUBANNPOLNYSAD-UHFFFAOYSA-N,?,,"COMER,J ET AL. (1995)",1.06
103464,1709-52-0,1709-52-0,[H]C1=C([H])C(S(=O)(=O)N([H])C([H])([H])[H])=C([H])C([H])=C1N([H])[H],N1-METHYLSULFANILAMIDE,N'-Methylsulfanilamide,4-Amino-N-methylbenzenesulfonamide,8002,DTXSID30168965,CNS(=O)(=O)c1ccc(N)cc1,"InChI=1S/C7H10N2O2S/c1-9-12(10,11)7-4-2-6(8)3-5-7/h2-5,9H,8H2,1H3",OISQSDKFWKJEBA-UHFFFAOYSA-N,?,,"HANSCH,C ET AL. (1995)",-0.01
103465,1709-59-7,1709-59-7,[H]C1=C([H])C(S(=O)(=O)N(C([H])([H])[H])C([H])([H])[H])=C([H])C([H])=C1N([H])[H],N1-DIMETHYLSULFANILAMIDE,"Benzenesulfonamide, 4-amino-N,N-dimethyl-","4-Amino-N,N-dimethylbenzenesulfonamide",8003,DTXSID5061902,CN(C)S(=O)(=O)c1ccc(N)cc1,"InChI=1S/C8H12N2O2S/c1-10(2)13(11,12)8-5-3-7(9)4-6-8/h3-6H,9H2,1-2H3",BABGMPQXLCJMSK-UHFFFAOYSA-N,?,,"HANSCH,C ET AL. (1995)",0.67
103466,1715-40-8,1715-40-8,[H]C([H])(Br)C1([H])C([H])([H])C2(Cl)C(Cl)=C(Cl)C1(Cl)C2(Cl)Cl,Bromociclen [INN],Bromociclen,"5-(bromomethyl)-1,2,3,4,7,7-hexachlorobicyclo[2.2.1]hept-2-ene",8004,DTXSID6041680,ClC1(Cl)C2(Cl)CC(CBr)C1(Cl)C(Cl)=C2Cl,"InChI=1S/C8H5BrCl6/c9-2-3-1-6(12)4(10)5(11)7(3,13)8(6,14)15/h3H,1-2H2",DAASOABUJRMZAD-UHFFFAOYSA-N,?,,"GEYER,HJ ET AL. (2000)",5.9
103468,1722-12-9,1722-12-9,[H]C1=NC(Cl)=NC([H])=C1[H],"PYRIMIDINE, 2-CHLORO-",2-Chloropyrimidine,2-Chloropyrimidine,8006,DTXSID70169214,Clc1[n]ccc[n]1,InChI=1S/C4H3ClN2/c5-4-6-2-1-3-7-4/h1-3H,UNCQVRBWJWWJBF-UHFFFAOYSA-N,?,,"YAMAGAMI,C ET AL. (1990)",0.36
103469,1722-18-5,1722-18-5,[H]C1=NC([H])=NC(C2=C([H])C([H])=C([H])C([H])=C2[H])=N1,2-PHENYL-S-TRIAZINE,"2-phenyl-1,3,5-triazine",C9H7N3,8007,DTXSID30274555,c1[n]c([n]c[n]1)-c1ccccc1,InChI=1S/C9H7N3/c1-2-4-8(5-3-1)9-11-6-10-7-12-9/h1-7H,RXELBMYKBFKHSM-UHFFFAOYSA-N,?,,"HANSCH,C ET AL. (1995)",1.93
103470,1726-94-9,1726-94-9,[H]C1=C([H])C([H])=C(C(N=C=S)(C2=C([H])C([H])=C([H])C([H])=C2[H])C2=C([H])C([H])=C([H])C([H])=C2[H])C([H])=C1[H],TRIPHENYLMETHYLISOTHIOCYANATE,Trityl isothiocyanate,[isothiocyanato-di(phenyl)methyl]benzene,8008,DTXSID70169355,S=C=NC(c1ccccc1)(c1ccccc1)c1ccccc1,"InChI=1S/C20H15NS/c22-16-21-20(17-10-4-1-5-11-17,18-12-6-2-7-13-18)19-14-8-3-9-15-19/h1-15H",ZPZHAUXTGFNYTN-UHFFFAOYSA-N,?,,"HANSCH,C ET AL. (1995)",7.02
103472,1731-84-6,1731-84-6,[H]C([H])([H])OC(=O)C([H])([H])C([H])([H])C([H])([H])C([H])([H])C([H])([H])C([H])([H])C([H])([H])C([H])([H])[H],METHYL NONANOATE,"Nonanoic acid, methyl ester",METHYL NONANOATE,8010,DTXSID8061921,CCCCCCCCC(=O)OC,"InChI=1S/C10H20O2/c1-3-4-5-6-7-8-9-10(11)12-2/h3-9H2,1-2H3",IJXHLVMUNBOGRR-UHFFFAOYSA-N,?,,"TEWARI,YB ET AL. (1982)",4.32
103473,1732-08-7,1732-08-7,[H]C([H])([H])OC(=O)C([H])([H])C([H])([H])C([H])([H])C([H])([H])C([H])([H])C(=O)OC([H])([H])[H],"HEPTANEDIOIC ACID, DIMETHYL ESTER","Heptanedioic acid, dimethyl ester",Dimethyl heptanedioate,8011,DTXSID8061925,COC(=O)CCCCCC(=O)OC,"InChI=1S/C9H16O4/c1-12-8(10)6-4-3-5-7-9(11)13-2/h3-7H2,1-2H3",SHWINQXIGSEZAP-UHFFFAOYSA-N,?,,"HANSCH,C ET AL. (1995)",1.38
103474,1737-06-0,1737-06-0,[H]C1=C([H])C(N([H])C(=O)C([H])([H])[H])=C([H])C([H])=C1OC(F)(F)F,4-OCF3 ACETANILIDE,"p-Acetanisidide, alpha,alpha,alpha-trifluoro-",N-[4-(trifluoromethoxy)phenyl]acetamide,8012,DTXSID20169643,CC(=O)Nc1ccc(cc1)OC(F)(F)F,"InChI=1S/C9H8F3NO2/c1-6(14)13-7-2-4-8(5-3-7)15-9(10,11)12/h2-5H,1H3,(H,13,14)",QQRLAETWHFRNQH-UHFFFAOYSA-N,?,,"NAKAGAWA,Y ET AL. (1992)",2.62
103476,1740-57-4,1740-57-4,[H]C1=C([H])C(C(=O)N([H])[H])=C([H])C(C(=O)N([H])[H])=C1[H],ISO-PHTHALAMIDE,"1,3-Benzenedicarboxamide","benzene-1,3-dicarboxamide",8014,DTXSID20169744,NC(=O)c1cc(ccc1)C(N)=O,"InChI=1S/C8H8N2O2/c9-7(11)5-2-1-3-6(4-5)8(10)12/h1-4H,(H2,9,11)(H2,10,12)",QZUPTXGVPYNUIT-UHFFFAOYSA-N,?,,"HANSCH,C ET AL. (1995)",-0.21
103477,1746-01-6,1746-01-6,[H]C1=C2OC3=C([H])C(Cl)=C(Cl)C([H])=C3OC2=C([H])C(Cl)=C1Cl,"2,3,7,8-TETRACHLORODIBENZO-P-DIOXIN","2,3,7,8-Tetrachlorodibenzo-p-dioxin","2,3,7,8-tetrachlorooxanthrene",8015,DTXSID2021315,Clc1cc2Oc3cc(Cl)c(Cl)cc3Oc2cc1Cl,InChI=1S/C12H4Cl4O2/c13-5-1-9-10(2-6(5)14)18-12-4-8(16)7(15)3-11(12)17-9/h1-4H,HGUFODBRKLSHSI-UHFFFAOYSA-N,?,,"SHIU,WY ET AL. (1988)",6.8
103478,1746-13-0,1746-13-0,[H]C([H])=C([H])C([H])([H])OC1=C([H])C([H])=C([H])C([H])=C1[H],ALLYLPHENYL ETHER,Allyl phenyl ether,prop-2-enoxybenzene,8016,DTXSID6061943,C=CCOc1ccccc1,"InChI=1S/C9H10O/c1-2-8-10-9-6-4-3-5-7-9/h2-7H,1,8H2",POSICDHOUBKJKP-UHFFFAOYSA-N,?,,"HANSCH,C ET AL. (1995)",2.94