ChemID,source_casrn,CAS,SMILES,NAME,preferred_name,iupac,MPID,dsstox_substance_id,Canonical_QSARr,InChI_Code_QSARr,InChI Key_QSARr,Salt_Solvent,Salt_Solvent_ID,Kow Reference,LogP
100203,59-87-0,59-87-0,[H]C1=C(/C([H])=N/N([H])C(=O)N([H])[H])OC([N+](=O)[O-])=C1[H],NITROFURAZONE,Nitrofurazone,(2E)-2-[(5-nitrofuran-2-yl)methylidene]hydrazinecarboxamide,4868,DTXSID5020944,NC(=O)NN=Cc1ccc(o1)[N+]([O-])=O,"InChI=1S/C6H6N4O4/c7-6(11)9-8-3-4-1-2-5(14-4)10(12)13/h1-3H,(H3,7,9,11)/b8-3+",IAIWVQXQOWNYOU-FPYGCLRLSA-N,?,,"HANSCH,C ET AL. (1995)",0.23
100204,59-89-2,59-89-2,[H]C1([H])OC([H])([H])C([H])([H])N(N=O)C1([H])[H],N-NITROSOMORPHOLINE,N-Nitrosomorpholine,4-nitrosomorpholine,4869,DTXSID4021056,O=NN1CCOCC1,InChI=1S/C4H8N2O2/c7-5-6-1-3-8-4-2-6/h1-4H2,ZKXDGKXYMTYWTB-UHFFFAOYSA-N,?,,"HANSCH,C ET AL. (1995)",-0.44
100206,59-98-3,59-98-3,[H]C1=C([H])C([H])=C(C([H])([H])C2=NC([H])([H])C([H])([H])N2[H])C([H])=C1[H],"1H-IMIDAZOLE, 4,5-DIHYDRO-2-(PHENYLMETHYL)-",Tolazoline,"2-benzyl-4,5-dihydro-1H-imidazole",4871,DTXSID3023683,C(C1NCCN=1)c1ccccc1,"InChI=1S/C10H12N2/c1-2-4-9(5-3-1)8-10-11-6-7-12-10/h1-5H,6-8H2,(H,11,12)",JIVZKJJQOZQXQB-UHFFFAOYSA-N,?,,SANGSTER (1993),2.65
100207,60-09-3,60-09-3,[H]C1=C([H])C([H])=C(/N=N/C2=C([H])C([H])=C(N([H])[H])C([H])=C2[H])C([H])=C1[H],P-PHENYLAZOANILINE,4-Aminoazobenzene,4-[(E)-phenyldiazenyl]aniline,4872,DTXSID6024460,Nc1ccc(cc1)N=Nc1ccccc1,"InChI=1S/C12H11N3/c13-10-6-8-12(9-7-10)15-14-11-4-2-1-3-5-11/h1-9H,13H2/b15-14+",QPQKUYVSJWQSDY-CCEZHUSRSA-N,?,,"HANSCH,C ET AL. (1995)",3.41
100208,60-11-7,60-11-7,[H]C1=C([H])C([H])=C(/N=N/C2=C([H])C([H])=C(N(C([H])([H])[H])C([H])([H])[H])C([H])=C2[H])C([H])=C1[H],"4-(N,N-DIMETHYLAMINO)AZOBENZENE",4-(Dimethylamino)azobenzene,"N,N-dimethyl-4-(phenyldiazenyl)aniline",4873,DTXSID5020491,CN(C)c1ccc(cc1)N=Nc1ccccc1,"InChI=1S/C14H15N3/c1-17(2)14-10-8-13(9-11-14)16-15-12-6-4-3-5-7-12/h3-11H,1-2H3/b16-15+",JCYPECIVGRXBMO-FOCLMDBBSA-N,?,,"HANSCH,C ET AL. (1995)",4.58
100210,60-17-3,51-65-0,[H]OC(=O)C([H])(N([H])[H])C([H])([H])C1=C([H])C([H])=C(F)C([H])=C1[H],DL-P-FLUOROPHENYLALANINE,4-Fluoro-dl-phenylalanine,4-fluorophenylalanine,4875,DTXSID3025332,NC(Cc1ccc(F)cc1)C(O)=O,"InChI=1S/C9H10FNO2/c10-7-3-1-6(2-4-7)5-8(11)9(12)13/h1-4,8H,5,11H2,(H,12,13)",XWHHYOYVRVGJJY-UHFFFAOYSA-N,?,,"HANSCH,C ET AL. (1995)",-1.89
100211,60-18-4,60-18-4,[H]OC(=O)C([H])(N([H])[H])C([H])([H])C1=C([H])C([H])=C(O[H])C([H])=C1[H],TYROSINE,L-Tyrosine,L-tyrosine,4876,DTXSID1023730,NC(Cc1ccc(O)cc1)C(O)=O,"InChI=1S/C9H11NO3/c10-8(9(12)13)5-6-1-3-7(11)4-2-6/h1-4,8,11H,5,10H2,(H,12,13)",OUYCCCASQSFEME-UHFFFAOYSA-N,?,,"HANSCH,C ET AL. (1995)",-2.26
100212,60-27-5,60-27-5,[H]/N=C1\N([H])C(=O)C([H])([H])N1C([H])([H])[H],CREATININE,Creatinine,2-imino-1-methylimidazolidin-4-one,4877,DTXSID8045987,CN1CC(=O)NC1=N,"InChI=1S/C4H7N3O/c1-7-2-3(8)6-4(7)5/h2H2,1H3,(H2,5,6,8)",DDRJAANPRJIHGJ-UHFFFAOYSA-N,?,,"HANSCH,C ET AL. (1995)",-1.76
100214,60-32-2,60-32-2,[H]OC(=O)C([H])([H])C([H])([H])C([H])([H])C([H])([H])C([H])([H])N([H])[H],6-AMINOHEXANOIC ACID,6-Aminocaproic acid,6-aminohexanoic acid,4879,DTXSID0020070,NCCCCCC(O)=O,"InChI=1S/C6H13NO2/c7-5-3-1-2-4-6(8)9/h1-5,7H2,(H,8,9)",SLXKOJJOQWFEFD-UHFFFAOYSA-N,?,,"HANSCH,C ET AL. (1995)",-2.95
100215,60-33-3,60-33-3,[H]OC(=O)C([H])([H])C([H])([H])C([H])([H])C([H])([H])C([H])([H])C([H])([H])C([H])([H])/C([H])=C(\[H])C([H])([H])/C([H])=C(\[H])C([H])([H])C([H])([H])C([H])([H])C([H])([H])C([H])([H])[H],LINOLEIC ACID,Linoleic acid,"(9Z,12Z)-octadeca-9,12-dienoic acid",4880,DTXSID2025505,CCCCCC=CCC=CCCCCCCCC(O)=O,"InChI=1S/C18H32O2/c1-2-3-4-5-6-7-8-9-10-11-12-13-14-15-16-17-18(19)20/h6-7,9-10H,2-5,8,11-17H2,1H3,(H,19,20)/b7-6+,10-9+",OYHQOLUKZRVURQ-AVQMFFATSA-N,?,,SANGSTER (1993),7.05
100216,60-34-4,60-34-4,[H]N([H])N([H])C([H])([H])[H],METHYL HYDRAZINE,Methylhydrazine,methylhydrazine,4881,DTXSID4020874,CNN,"InChI=1S/CH6N2/c1-3-2/h3H,2H2,1H3",HDZGCSFEDULWCS-UHFFFAOYSA-N,?,,"HANSCH,C ET AL. (1995)",-1.05
100218,60-51-5,60-51-5,[H]N(C(=O)C([H])([H])SP(=S)(OC([H])([H])[H])OC([H])([H])[H])C([H])([H])[H],DIMETHOATE,Dimethoate,"O,O-dimethyl S-[2-(methylamino)-2-oxoethyl] phosphorodithioate",4883,DTXSID7020479,CNC(=O)CSP(=S)(OC)OC,"InChI=1S/C5H12NO3PS2/c1-6-5(7)4-12-10(11,8-2)9-3/h4H2,1-3H3,(H,6,7)",MCWXGJITAZMZEV-UHFFFAOYSA-N,?,,"HANSCH,C ET AL. (1995)",0.78
100219,60-54-8,60-54-8,[H]OC1=C2C(=O)C3=C(O[H])C4(O[H])C(=O)C(C(=O)N([H])[H])=C(O[H])C([H])(N(C([H])([H])[H])C([H])([H])[H])C4([H])C([H])([H])C3([H])C(O[H])(C([H])([H])[H])C2=C([H])C([H])=C1[H],TETRACYCLINE,Tetracycline,"(4S,4aS,5aS,6S,12aS)-4-(dimethylamino)-3,6,10,12,12a-pentahydroxy-6-methyl-1,11-dioxo-1,4,4a,5,5a,6,11,12a-octahydrotetracene-2-carboxamide",4884,DTXSID7023645,CC1(O)C2CC3C(C(O)=C(C(N)=O)C(=O)C3(O)C(O)=C2C(=O)c2c1cccc2O)N(C)C,"InChI=1S/C22H24N2O8/c1-21(31)8-5-4-6-11(25)12(8)16(26)13-9(21)7-10-15(24(2)3)17(27)14(20(23)30)19(29)22(10,32)18(13)28/h4-6,9-10,15,25,27-28,31-32H,7H2,1-3H3,(H2,23,30)",OFVLGDICTFRJMM-UHFFFAOYSA-N,?,,"HANSCH,C ET AL. (1995)",-1.3
100220,60-56-0,60-56-0,[H]C1=C([H])N(C([H])([H])[H])C(=S)N1[H],METHIMAZOLE,Methimazole,"1-methyl-1,3-dihydro-2H-imidazole-2-thione",4885,DTXSID4020820,CN1C=CNC1=S,"InChI=1S/C4H6N2S/c1-6-3-2-5-4(6)7/h2-3H,1H3,(H,5,7)",PMRYVIKBURPHAH-UHFFFAOYSA-N,?,,"HANSCH,C ET AL. (1995)",-0.34
100222,60-80-0,60-80-0,[H]C1=C([H])C([H])=C(N2C(=O)C([H])=C(C([H])([H])[H])N2C([H])([H])[H])C([H])=C1[H],ANTIPYRINE,Phenazone,"1,5-dimethyl-2-phenyl-1,2-dihydro-3H-pyrazol-3-one",4887,DTXSID6021117,CN1C(C)=CC(=O)N1c1ccccc1,"InChI=1S/C11H12N2O/c1-9-8-11(14)13(12(9)2)10-6-4-3-5-7-10/h3-8H,1-2H3",VEQOALNAAJBPNY-UHFFFAOYSA-N,?,,"HANSCH,C ET AL. (1995)",0.38
100223,60-87-7,60-87-7,[H]C1=C([H])C([H])=C2C(=C1[H])SC1=C([H])C([H])=C([H])C([H])=C1N2C([H])([H])C([H])(N(C([H])([H])[H])C([H])([H])[H])C([H])([H])[H],PROMETHAZINE,Promethazine,"N,N-dimethyl-1-(10H-phenothiazin-10-yl)propan-2-amine",4888,DTXSID7023518,CN(C)C(C)CN1c2ccccc2Sc2ccccc12,"InChI=1S/C17H20N2S/c1-13(18(2)3)12-19-14-8-4-6-10-16(14)20-17-11-7-5-9-15(17)19/h4-11,13H,12H2,1-3H3",PWWVAXIEGOYWEE-UHFFFAOYSA-N,?,,"HANSCH,C ET AL. (1995)",4.81
100225,60-92-4,60-92-4,[H]OC1([H])C([H])(N2C([H])=NC3=C(N([H])[H])N=C([H])N=C32)OC2([H])C([H])([H])OP(=O)(O[H])OC21[H],Cyclic AMP,cAMP,"(4aR,6R,7R,7aS)-6-(6-amino-9H-purin-9-yl)tetrahydro-4H-furo[3,2-d][1,3,2]dioxaphosphinine-2,7-diol 2-oxide",4889,DTXSID8040436,Nc1[n]c[n]c2c1[n]c[n]2C1OC2COP(O)(=O)OC2C1O,"InChI=1S/C10H12N5O6P/c11-8-5-9(13-2-12-8)15(3-14-5)10-6(16)7-4(20-10)1-19-22(17,18)21-7/h2-4,6-7,10,16H,1H2,(H,17,18)(H2,11,12,13)",IVOMOUWHDPKRLL-UHFFFAOYSA-N,?,,"HANSCH,C ET AL. (1995)",-2.96
100227,61-01-8,61-01-8,[H]C1=C([H])C([H])=C2C(=C1[H])SC1=C([H])C([H])=C(OC([H])([H])[H])C([H])=C1N2C([H])([H])C([H])([H])C([H])([H])N(C([H])([H])[H])C([H])([H])[H],METHOXYPROMAZINE,Methoxypromazine,"3-(2-methoxyphenothiazin-10-yl)-N,N-dimethylpropan-1-amine",4891,DTXSID90209843,CN(C)CCCN1c2cc(ccc2Sc2ccccc12)OC,"InChI=1S/C18H22N2OS/c1-19(2)11-6-12-20-15-7-4-5-8-17(15)22-18-10-9-14(21-3)13-16(18)20/h4-5,7-10,13H,6,11-12H2,1-3H3",BRABPYPSZVCCLR-UHFFFAOYSA-N,?,,"HANSCH,C ET AL. (1995)",4.9
100228,61-32-5,61-32-5,[H]OC(=O)C1([H])N2C(=O)C([H])(N([H])C(=O)C3=C(OC([H])([H])[H])C([H])=C([H])C([H])=C3OC([H])([H])[H])C2([H])SC1(C([H])([H])[H])C([H])([H])[H],METHICILLIN,Methicillin,C17H20N2O6S,4892,DTXSID6023284,CC1(C)SC2C(NC(=O)c3c(cccc3OC)OC)C(=O)N2C1C(O)=O,"InChI=1S/C17H20N2O6S/c1-17(2)12(16(22)23)19-14(21)11(15(19)26-17)18-13(20)10-8(24-3)6-5-7-9(10)25-4/h5-7,11-12,15H,1-4H3,(H,18,20)(H,22,23)",RJQXTJLFIWVMTO-UHFFFAOYSA-N,?,,"HANSCH,C ET AL. (1995)",1.22
100229,61-33-6,61-33-6,[H]OC(=O)C1([H])N2C(=O)C([H])(N([H])C(=O)C([H])([H])C3=C([H])C([H])=C([H])C([H])=C3[H])C2([H])SC1(C([H])([H])[H])C([H])([H])[H],BENZYLPENICILLIN,Penicillin G,"(2S,5R,6R)-3,3-dimethyl-7-oxo-6-[(phenylacetyl)amino]-4-thia-1-azabicyclo[3.2.0]heptane-2-carboxylic acid",4893,DTXSID5046934,CC1(C)SC2C(NC(=O)Cc3ccccc3)C(=O)N2C1C(O)=O,"InChI=1S/C16H18N2O4S/c1-16(2)12(15(21)22)18-13(20)11(14(18)23-16)17-10(19)8-9-6-4-3-5-7-9/h3-7,11-12,14H,8H2,1-2H3,(H,17,19)(H,21,22)",JGSARLDLIJGVTE-UHFFFAOYSA-N,?,,"HANSCH,C ET AL. (1995)",1.83
100231,61-57-4,61-57-4,[H]C1=C([N+](=O)[O-])SC(N2C(=O)N([H])C([H])([H])C2([H])[H])=N1,NIRIDAZOLE,Niridazole,"1-(5-nitro-1,3-thiazol-2-yl)imidazolidin-2-one",4895,DTXSID6045244,[O-][N+](=O)c1c[n]c([s]1)N1CCNC1=O,"InChI=1S/C6H6N4O3S/c11-5-7-1-2-9(5)6-8-3-4(14-6)10(12)13/h3H,1-2H2,(H,7,11)",RDXLYGJSWZYTFJ-UHFFFAOYSA-N,?,,"HANSCH,C ET AL. (1995)",0.95
100232,61-68-7,61-68-7,[H]OC(=O)C1=C([H])C([H])=C([H])C([H])=C1N([H])C1=C(C([H])([H])[H])C(C([H])([H])[H])=C([H])C([H])=C1[H],MEFENAMIC ACID,Mefenamic acid,"2-[(2,3-dimethylphenyl)amino]benzoic acid",4896,DTXSID5023243,Cc1cccc(Nc2ccccc2C(O)=O)c1C,"InChI=1S/C15H15NO2/c1-10-6-5-9-13(11(10)2)16-14-8-4-3-7-12(14)15(17)18/h3-9,16H,1-2H3,(H,17,18)",HYYBABOKPJLUIN-UHFFFAOYSA-N,?,,"HANSCH,C ET AL. (1995)",5.12
100233,61-72-3,61-72-3,[H]OC(=O)C1([H])N2C(=O)C([H])(N([H])C(=O)C3=C(C([H])([H])[H])ON=C3C3=C(Cl)C([H])=C([H])C([H])=C3[H])C2([H])SC1(C([H])([H])[H])C([H])([H])[H],CLOXACILLIN,Cloxacillin,"(2S,5R,6R)-6-({[3-(2-chlorophenyl)-5-methyl-1,2-oxazol-4-yl]carbonyl}amino)-3,3-dimethyl-7-oxo-4-thia-1-azabicyclo[3.2.0]heptane-2-carboxylic acid",4897,DTXSID5022853,Cc1o[n]c(c1C(=O)NC1C2SC(C)(C)C(C(O)=O)N2C1=O)-c1ccccc1Cl,"InChI=1S/C19H18ClN3O5S/c1-8-11(12(22-28-8)9-6-4-5-7-10(9)20)15(24)21-13-16(25)23-14(18(26)27)19(2,3)29-17(13)23/h4-7,13-14,17H,1-3H3,(H,21,24)(H,26,27)",LQOLIRLGBULYKD-UHFFFAOYSA-N,?,,SANGSTER (1994),2.48
100236,61-80-3,61-80-3,[H]C1=C(Cl)C([H])=C2N=C(N([H])[H])OC2=C1[H],ZOXAZOLAMINE,Zoxazolamine,"5-chloro-1,3-benzoxazol-2-amine",4899,DTXSID1045245,Nc1[n]c2cc(Cl)ccc2o1,"InChI=1S/C7H5ClN2O/c8-4-1-2-6-5(3-4)10-7(9)11-6/h1-3H,(H2,9,10)",YGCODSQDUUUKIV-UHFFFAOYSA-N,?,,"HANSCH,C ET AL. (1995)",2.46
100237,61-82-5,61-82-5,[H]C1=NC(N([H])[H])=NN1[H],AMITROLE,Amitrole,"1H-1,2,4-triazol-3-amine",4900,DTXSID0020076,Nc1[n]c[nH][n]1,"InChI=1S/C2H4N4/c3-2-4-1-5-6-2/h1H,(H3,3,4,5,6)",KLSJWNVTNUYHDU-UHFFFAOYSA-N,?,,"TOMLIN,C (2003)",-0.97
100238,61-90-5,61-90-5,[H]OC(=O)C([H])(N([H])[H])C([H])([H])C([H])(C([H])([H])[H])C([H])([H])[H],LEUCINE,Leucine,L-leucine,4901,DTXSID9023203,CC(C)CC(N)C(O)=O,"InChI=1S/C6H13NO2/c1-4(2)3-5(7)6(8)9/h4-5H,3,7H2,1-2H3,(H,8,9)",ROHFNLRQFUQHCH-UHFFFAOYSA-N,?,,"HANSCH,C ET AL. (1995)",-1.52
100242,62-44-2,62-44-2,[H]C1=C([H])C(N([H])C(=O)C([H])([H])[H])=C([H])C([H])=C1OC([H])([H])C([H])([H])[H],P-PHENACETIN,Phenacetin,N-(4-ethoxyphenyl)acetamide,4903,DTXSID1021116,CC(=O)Nc1ccc(cc1)OCC,"InChI=1S/C10H13NO2/c1-3-13-10-6-4-9(5-7-10)11-8(2)12/h4-7H,3H2,1-2H3,(H,11,12)",CPJSUEIXXCENMM-UHFFFAOYSA-N,?,,"NAKAGAWA,Y ET AL. (1992)",1.58
100243,62-53-3,62-53-3,[H]C1=C([H])C([H])=C(N([H])[H])C([H])=C1[H],ANILINE,Aniline,aniline,4904,DTXSID8020090,Nc1ccccc1,"InChI=1S/C6H7N/c7-6-4-2-1-3-5-6/h1-5H,7H2",PAYRUJLWNCNPSJ-UHFFFAOYSA-N,?,,"HANSCH,C ET AL. (1995)",0.9
100244,62-55-5,62-55-5,[H]N([H])C(=S)C([H])([H])[H],THIOACETAMIDE,Thioacetamide,ethanethioamide,4905,DTXSID9021340,CC(N)=S,"InChI=1S/C2H5NS/c1-2(3)4/h1H3,(H2,3,4)",YUKQRDCYNOVPGJ-UHFFFAOYSA-N,?,,"HANSCH,C ET AL. (1995)",-0.26
100246,62-67-9,62-67-9,[H]OC1=C([H])C([H])=C2C3=C1OC1([H])C([H])(O[H])C([H])=C([H])C4([H])C([H])(N(C([H])([H])C([H])=C([H])[H])C([H])([H])C([H])([H])C314)C2([H])[H],NALORPHINE,Nalorphine,"(5alpha,6alpha)-17-(prop-2-en-1-yl)-7,8-didehydro-4,5-epoxymorphinan-3,6-diol",4907,DTXSID3023348,C=CCN1CCC23C4Oc5c2c(CC1C3C=CC4O)ccc5O,"InChI=1S/C19H21NO3/c1-2-8-20-9-7-19-12-4-6-15(22)18(19)23-17-14(21)5-3-11(16(17)19)10-13(12)20/h2-6,12-13,15,18,21-22H,1,7-10H2",UIQMVEYFGZJHCZ-UHFFFAOYSA-N,?,,"HANSCH,C ET AL. (1995)",1.86
100247,62-73-7,62-73-7,[H]C(OP(=O)(OC([H])([H])[H])OC([H])([H])[H])=C(Cl)Cl,DICHLORVOS,Dichlorvos,"2,2-dichloroethenyl dimethyl phosphate",4908,DTXSID5020449,COP(=O)(OC=C(Cl)Cl)OC,"InChI=1S/C4H7Cl2O4P/c1-8-11(7,9-2)10-3-4(5)6/h3H,1-2H3",OEBRKCOSUFCWJD-UHFFFAOYSA-N,?,,"HANSCH,C ET AL. (1995)",1.43
100248,62-75-9,62-75-9,[H]C([H])([H])N(N=O)C([H])([H])[H],N-NITROSODIMETHYLAMINE,N-Nitrosodimethylamine,N-methyl-N-nitrosomethanamine,4909,DTXSID7021029,CN(C)N=O,InChI=1S/C2H6N2O/c1-4(2)3-5/h1-2H3,UMFJAHHVKNCGLG-UHFFFAOYSA-N,?,,"HANSCH,C ET AL. (1995)",-0.57
100250,63-25-2,63-25-2,[H]C1=C([H])C([H])=C2C(OC(=O)N([H])C([H])([H])[H])=C([H])C([H])=C([H])C2=C1[H],1-NAPHTHYL-N-METHYLCARBAMATE,Carbaryl,naphthalen-1-yl methylcarbamate,4911,DTXSID9020247,CNC(=O)Oc1cccc2ccccc21,"InChI=1S/C12H11NO2/c1-13-12(14)15-11-8-4-6-9-5-2-3-7-10(9)11/h2-8H,1H3,(H,13,14)",CVXBEEMKQHEXEN-UHFFFAOYSA-N,?,,"HANSCH,C ET AL. (1995)",2.36
100251,63-68-3,63-68-3,[H]OC(=O)C([H])(N([H])[H])C([H])([H])C([H])([H])SC([H])([H])[H],METHIONINE,L-Methionine,L-methionine,4912,DTXSID5040548,CSCCC(N)C(O)=O,"InChI=1S/C5H11NO2S/c1-9-3-2-4(6)5(7)8/h4H,2-3,6H2,1H3,(H,7,8)",FFEARJCKVFRZRR-UHFFFAOYSA-N,?,,"HANSCH,C ET AL. (1995)",-1.87
100252,63-74-1,63-74-1,[H]C1=C([H])C(S(=O)(=O)N([H])[H])=C([H])C([H])=C1N([H])[H],SULFANILAMIDE,Sulfanilamide,4-aminobenzenesulfonamide,4913,DTXSID4023622,Nc1ccc(cc1)S(N)(=O)=O,"InChI=1S/C6H8N2O2S/c7-5-1-3-6(4-2-5)11(8,9)10/h1-4H,7H2,(H2,8,9,10)",FDDDEECHVMSUSB-UHFFFAOYSA-N,?,,"HANSCH,C ET AL. (1995)",-0.62
100255,63-91-2|150-30-1,63-91-2|150-30-1,[H]OC(=O)C([H])(N([H])[H])C([H])([H])C1=C([H])C([H])=C([H])C([H])=C1[H],"PHENYLALANINE, DL-PHENYLALANINE",L-Phenylalanine,L-phenylalanine,4916|6238,DTXSID4040763|DTXSID9023463,NC(Cc1ccccc1)C(O)=O,"InChI=1S/C9H11NO2/c10-8(9(11)12)6-7-4-2-1-3-5-7/h1-5,8H,6,10H2,(H,11,12)",COLNVLDHVKWLRT-UHFFFAOYSA-N,?,,"AVDEEF,A (1997)",-1.38
100256,63-98-9,63-98-9,[H]C1=C([H])C([H])=C(C([H])([H])C(=O)N([H])C(=O)N([H])[H])C([H])=C1[H],PHENACEMIDE,Phenacemide,N-carbamoyl-2-phenylacetamide,4917,DTXSID6023442,NC(=O)NC(=O)Cc1ccccc1,"InChI=1S/C9H10N2O2/c10-9(13)11-8(12)6-7-4-2-1-3-5-7/h1-5H,6H2,(H3,10,11,12,13)",XPFRXWCVYUEORT-UHFFFAOYSA-N,?,,"HANSCH,C ET AL. (1995)",0.87
100257,63-99-0,63-99-0,[H]C1=C([H])C(C([H])([H])[H])=C([H])C(N([H])C(=O)N([H])[H])=C1[H],M-TOLYLUREA,"Urea, (3-methylphenyl)-",(3-Methylphenyl)urea,4918,DTXSID1075351,Cc1cc(ccc1)NC(N)=O,"InChI=1S/C8H10N2O/c1-6-3-2-4-7(5-6)10-8(9)11/h2-5H,1H3,(H3,9,10,11)",UVQVMNIYFXZXCI-UHFFFAOYSA-N,?,,"HANSCH,C ET AL. (1995)",1.29
100259,64-04-0,64-04-0,[H]C1=C([H])C([H])=C(C([H])([H])C([H])([H])N([H])[H])C([H])=C1[H],2-PHENYLETHYLAMINE,Phenethylamine,2-phenylethanamine,4920,DTXSID5058773,NCCc1ccccc1,"InChI=1S/C8H11N/c9-7-6-8-4-2-1-3-5-8/h1-5H,6-7,9H2",BHHGXPLMPWCGHP-UHFFFAOYSA-N,?,,"HANSCH,C ET AL. (1995)",1.41
100260,64-10-8,64-10-8,[H]C1=C([H])C([H])=C(N([H])C(=O)N([H])[H])C([H])=C1[H],PHENYLUREA,1-Phenylurea,C7H8N2O,4921,DTXSID8042507,NC(=O)Nc1ccccc1,"InChI=1S/C7H8N2O/c8-7(10)9-6-4-2-1-3-5-6/h1-5H,(H3,8,9,10)",LUBJCRLGQSPQNN-UHFFFAOYSA-N,?,,"HANSCH,C ET AL. (1995)",0.83
100261,64-13-1,64-13-1,[H]C1=C([H])C(C([H])([H])C([H])(N([H])[H])C([H])([H])[H])=C([H])C([H])=C1OC([H])([H])[H],P-METHOXYAMPHETAMINE,4-Methoxyamphetamine,1-(4-methoxyphenyl)propan-2-amine,4922,DTXSID7040578,COc1ccc(CC(C)N)cc1,"InChI=1S/C10H15NO/c1-8(11)7-9-3-5-10(12-2)6-4-9/h3-6,8H,7,11H2,1-2H3",NEGYEDYHPHMHGK-UHFFFAOYSA-N,?,,"HANSCH,C ET AL. (1995)",1.77
100263,64-18-6,64-18-6,[H]OC([H])=O,FORMIC ACID,Formic acid,formic acid,4924,DTXSID2024115,OC=O,"InChI=1S/CH2O2/c2-1-3/h1H,(H,2,3)",BDAGIHXWWSANSR-UHFFFAOYSA-N,?,,"HANSCH,C ET AL. (1995)",-0.54
100264,64-19-7,64-19-7,[H]OC(=O)C([H])([H])[H],ACETIC ACID,Acetic acid,acetic acid,4925,DTXSID5024394,CC(O)=O,"InChI=1S/C2H4O2/c1-2(3)4/h1H3,(H,3,4)",QTBSBXVTEAMEQO-UHFFFAOYSA-N,?,,"HANSCH,C ET AL. (1995)",-0.17
100265,64-39-1,NOCAS_861607,[H]C1=C([H])C([H])=C(C2(OC(=O)C([H])([H])C([H])([H])[H])C([H])([H])C([H])(C([H])([H])[H])N(C([H])([H])[H])C([H])([H])C2([H])C([H])([H])[H])C([H])=C1[H],PROMEDOL,,,4926,DTXSID90861607,CCC(=O)OC1(CC(C)N(C)CC1C)c1ccccc1,"InChI=1S/C17H25NO2/c1-5-16(19)20-17(15-9-7-6-8-10-15)11-14(3)18(4)12-13(17)2/h6-10,13-14H,5,11-12H2,1-4H3",UVITTYOJFDLOGI-UHFFFAOYSA-N,?,,"HANSCH,C ET AL. (1995)",3.13
100267,64-77-7,64-77-7,[H]C1=C([H])C(S(=O)(=O)N([H])C(=O)N([H])C([H])([H])C([H])([H])C([H])([H])C([H])([H])[H])=C([H])C([H])=C1C([H])([H])[H],TOLBUTAMIDE,Tolbutamide,N-(butylcarbamoyl)-4-methylbenzenesulfonamide,4928,DTXSID8021359,Cc1ccc(cc1)S(=O)(=O)NC(=O)NCCCC,"InChI=1S/C12H18N2O3S/c1-3-4-9-13-12(15)14-18(16,17)11-7-5-10(2)6-8-11/h5-8H,3-4,9H2,1-2H3,(H2,13,14,15)",JLRGJRBPOGGCBT-UHFFFAOYSA-N,?,,"HANSCH,C ET AL. (1995)",2.34
100268,64-85-7,64-85-7,[H]OC([H])([H])C(=O)C1([H])C([H])([H])C([H])([H])C2([H])C3([H])C([H])([H])C([H])([H])C4=C([H])C(=O)C([H])([H])C([H])([H])C4(C([H])([H])[H])C3([H])C([H])([H])C([H])([H])C12C([H])([H])[H],DEOXYCORTICOSTERONE,21-Hydroxyprogesterone,"21-hydroxypregn-4-ene-3,20-dione",4929,DTXSID0045254,CC12CCC3C(CCC4=CC(=O)CCC43C)C1CCC2C(=O)CO,"InChI=1S/C21H30O3/c1-20-9-7-14(23)11-13(20)3-4-15-16-5-6-18(19(24)12-22)21(16,2)10-8-17(15)20/h11,15-18,22H,3-10,12H2,1-2H3",ZESRJSPZRDMNHY-UHFFFAOYSA-N,?,,"HANSCH,C ET AL. (1995)",2.88
100269,64-86-8,64-86-8,[H]C1=C(OC([H])([H])[H])C(=O)C([H])=C2C(=C1[H])C1=C(OC([H])([H])[H])C(OC([H])([H])[H])=C(OC([H])([H])[H])C([H])=C1C([H])([H])C([H])([H])C2([H])N([H])C(=O)C([H])([H])[H],COLCHICINE,Colchicine,"N-[(7S)-1,2,3,10-tetramethoxy-9-oxo-5,6,7,9-tetrahydrobenzo[a]heptalen-7-yl]acetamide",4930,DTXSID5024845,CC(=O)NC1CCc2cc(OC)c(OC)c(OC)c2C2=CC=C(OC)C(=O)C=C21,"InChI=1S/C22H25NO6/c1-12(24)23-16-8-6-13-10-19(27-3)21(28-4)22(29-5)20(13)14-7-9-18(26-2)17(25)11-15(14)16/h7,9-11,16H,6,8H2,1-5H3,(H,23,24)",IAKHMKGGTNLKSZ-UHFFFAOYSA-N,?,,"HANSCH,C ET AL. (1995)",1.3
100271,65-45-2,65-45-2,[H]OC1=C(C(=O)N([H])[H])C([H])=C([H])C([H])=C1[H],O-HYDROXYBENZAMIDE,Salicylamide,2-hydroxybenzamide,4932,DTXSID3021726,NC(=O)c1ccccc1O,"InChI=1S/C7H7NO2/c8-7(10)5-3-1-2-4-6(5)9/h1-4,9H,(H2,8,10)",SKZKKFZAGNVIMN-UHFFFAOYSA-N,?,,"HANSCH,C ET AL. (1995)",1.28
100272,65-46-3,26524-60-7,[H]OC([H])([H])C1([H])OC([H])(N2C(=O)N=C(N([H])[H])C([H])=C2[H])C([H])(O[H])C1([H])O[H],CYTIDINE,L-Cytidine,C9H13N3O5,4933,DTXSID40276262,NC1C=CN(C2OC(CO)C(O)C2O)C(=O)N=1,"InChI=1S/C9H13N3O5/c10-5-1-2-12(9(16)11-5)8-7(15)6(14)4(3-13)17-8/h1-2,4,6-8,13-15H,3H2,(H2,10,11,16)",UHDGCWIWMRVCDJ-UHFFFAOYSA-N,?,,"HANSCH,C ET AL. (1995)",-2.51
100273,65-49-6,65-49-6,[H]OC(=O)C1=C([H])C([H])=C(N([H])[H])C([H])=C1O[H],P-AMINOSALICYLIC ACID,Aminosalicylic acid,4-amino-2-hydroxybenzoic acid,4934,DTXSID2022591,Nc1cc(O)c(cc1)C(O)=O,"InChI=1S/C7H7NO3/c8-4-1-2-5(7(10)11)6(9)3-4/h1-3,9H,8H2,(H,10,11)",WUBBRNOQWQTFEX-UHFFFAOYSA-N,?,,SANGSTER (1994),0.89
100275,65-85-0,65-85-0,[H]OC(=O)C1=C([H])C([H])=C([H])C([H])=C1[H],BENZOIC ACID,Benzoic acid,benzoic acid,4936,DTXSID6020143,OC(=O)c1ccccc1,"InChI=1S/C7H6O2/c8-7(9)6-4-2-1-3-5-6/h1-5H,(H,8,9)",WPYMKLBDIGXBTP-UHFFFAOYSA-N,?,,"HANSCH,C ET AL. (1995)",1.87
100276,65-86-1,65-86-1,[H]OC(=O)C1=NC(O[H])=NC(O[H])=C1[H],OROTIC ACID,Orotic acid,"2,6-dihydroxypyrimidine-4-carboxylic acid",4937,DTXSID0025814,Oc1[n]c(cc(O)[n]1)C(O)=O,"InChI=1S/C5H4N2O4/c8-3-1-2(4(9)10)6-5(11)7-3/h1H,(H,9,10)(H2,6,7,8,11)",PXQPEWDEAKTCGB-UHFFFAOYSA-N,?,,SANGSTER (1994),-0.83
100277,66-22-8,66-22-8,[H]C1=C([H])N([H])C(=O)N([H])C1=O,URACIL,Uracil,"pyrimidine-2,4(1H,3H)-dione",4938,DTXSID4021424,O=C1C=CNC(=O)N1,"InChI=1S/C4H4N2O2/c7-3-1-2-5-4(8)6-3/h1-2H,(H2,5,6,7,8)",ISAKRJDGNUQOIC-UHFFFAOYSA-N,?,,"HANSCH,C ET AL. (1995)",-1.07
100280,66-28-4,NOCAS_871536,[H]OC1([H])C([H])([H])C([H])([H])C2(C([H])=O)C3([H])C([H])([H])C([H])([H])C4(C([H])([H])[H])C([H])(C5=C([H])C(=O)OC5([H])[H])C([H])([H])C([H])([H])C4(O[H])C3([H])C([H])([H])C([H])([H])C2(O[H])C1([H])[H],STROPHANTHIDIN,,,4940,DTXSID60871536,CC12CCC3C(CCC4(O)CC(O)CCC43C=O)C1(O)CCC2C1COC(=O)C=1,"InChI=1S/C23H32O6/c1-20-6-3-17-18(4-8-22(27)11-15(25)2-7-21(17,22)13-24)23(20,28)9-5-16(20)14-10-19(26)29-12-14/h10,13,15-18,25,27-28H,2-9,11-12H2,1H3",ODJLBQGVINUMMR-UHFFFAOYSA-N,?,,"HANSCH,C ET AL. (1995)",0.64
100281,66-71-7,66-71-7,[H]C1=NC2=C3N=C([H])C([H])=C([H])C3=C([H])C([H])=C2C([H])=C1[H],O-PHENANTHROLINE,"1,10-Phenanthroline","1,10-phenanthroline",4941,DTXSID1025857,c1cc2ccc[n]c2c2[n]cccc21,InChI=1S/C12H8N2/c1-3-9-5-6-10-4-2-8-14-12(10)11(9)13-7-1/h1-8H,DGEZNRSVGBDHLK-UHFFFAOYSA-N,?,,"HANSCH,C ET AL. (1995)",1.78