ChemID,source_casrn,CAS,SMILES,NAME,preferred_name,iupac,MPID,dsstox_substance_id,Canonical_QSARr,InChI_Code_QSARr,InChI Key_QSARr,Salt_Solvent,Salt_Solvent_ID,Kow Reference,LogP
101368,121-52-8,121-52-8,[H]C1=C([H])C(S(=O)(=O)N([H])[H])=C([H])C([N+](=O)[O-])=C1[H],M-NITROBENZENESULFONAMIDE,"Benzenesulfonamide, 3-nitro-",3-Nitrobenzenesulfonamide,6007,DTXSID1059527,NS(=O)(=O)c1cc(ccc1)[N+]([O-])=O,"InChI=1S/C6H6N2O4S/c7-13(11,12)6-3-1-2-5(4-6)8(9)10/h1-4H,(H2,7,11,12)",TXTQURPQLVHJRE-UHFFFAOYSA-N,?,,"HANSCH,C ET AL. (1995)",0.55
101370,121-61-9,121-61-9,[H]C1=C([H])C(S(=O)(=O)N([H])[H])=C([H])C([H])=C1N([H])C(=O)C([H])([H])[H],"ACETAMIDE, N-[4-(AMINOSULFONYL)PHENYL]",4'-Sulfamylacetanilide,N-(4-sulfamoylphenyl)acetamide,6009,DTXSID4041529,CC(=O)Nc1ccc(cc1)S(N)(=O)=O,"InChI=1S/C8H10N2O3S/c1-6(11)10-7-2-4-8(5-3-7)14(9,12)13/h2-5H,1H3,(H,10,11)(H2,9,12,13)",PKOFBDHYTMYVGJ-UHFFFAOYSA-N,?,,"CAROTTI,A ET AL. (1989)",-0.04
101371,121-66-4,121-66-4,[H]C1=C([N+](=O)[O-])SC(N([H])[H])=N1,"2-THIAZOLAMINE, 5-NITRO-",2-Amino-5-nitrothiazole,"5-nitro-1,3-thiazol-2-amine",6010,DTXSID6020066,Nc1[n]cc([s]1)[N+]([O-])=O,"InChI=1S/C3H3N3O2S/c4-3-5-1-2(9-3)6(7)8/h1H,(H2,4,5)",MIHADVKEHAFNPG-UHFFFAOYSA-N,?,,"HANSCH,C ET AL. (1995)",0.83
101372,121-69-7,121-69-7,[H]C1=C([H])C([H])=C(N(C([H])([H])[H])C([H])([H])[H])C([H])=C1[H],"N,N-DIMETHYLANILINE","N,N-Dimethylaniline","N,N-dimethylaniline",6011,DTXSID2020507,CN(C)c1ccccc1,"InChI=1S/C8H11N/c1-9(2)8-6-4-3-5-7-8/h3-7H,1-2H3",JLTDJTHDQAWBAV-UHFFFAOYSA-N,?,,"HANSCH,C ET AL. (1995)",2.31
101374,121-72-2,121-72-2,[H]C1=C([H])C(C([H])([H])[H])=C([H])C(N(C([H])([H])[H])C([H])([H])[H])=C1[H],"M-TOLUIDINE-N,N-DIMETHYL","N,N,3-Trimethylaniline","N,N,3-trimethylaniline",6013,DTXSID9051618,Cc1cccc(c1)N(C)C,"InChI=1S/C9H13N/c1-8-5-4-6-9(7-8)10(2)3/h4-7H,1-3H3",CWOMTHDOJCARBY-UHFFFAOYSA-N,?,,"HANSCH,C ET AL. (1995)",2.8
101375,121-73-3,121-73-3,[H]C1=C([H])C([N+](=O)[O-])=C([H])C(Cl)=C1[H],3-CHLORO-NITROBENZENE,1-Chloro-3-nitrobenzene,1-chloro-3-nitrobenzene,6014,DTXSID4021971,[O-][N+](=O)c1cccc(Cl)c1,InChI=1S/C6H4ClNO2/c7-5-2-1-3-6(4-5)8(9)10/h1-4H,KMAQZIILEGKYQZ-UHFFFAOYSA-N,?,,"HANSCH,C ET AL. (1995)",2.46
101376,121-75-5,121-75-5,[H]C([H])([H])OP(=S)(OC([H])([H])[H])SC([H])(C(=O)OC([H])([H])C([H])([H])[H])C([H])([H])C(=O)OC([H])([H])C([H])([H])[H],MALATHION,Malathion,diethyl 2-[(dimethoxyphosphorothioyl)sulfanyl]butanedioate,6015,DTXSID4020791,CCOC(=O)C(CC(=O)OCC)SP(=S)(OC)OC,"InChI=1S/C10H19O6PS2/c1-5-15-9(11)7-8(10(12)16-6-2)19-17(18,13-3)14-4/h8H,5-7H2,1-4H3",JXSJBGJIGXNWCI-UHFFFAOYSA-N,?,,"HANSCH,C ET AL. (1995)",2.36
101378,121-81-3,121-81-3,[H]C1=C(C(=O)N([H])[H])C([H])=C([N+](=O)[O-])C([H])=C1[N+](=O)[O-],"3,5-DINITROBENZAMIDE",Nitromide,"3,5-dinitrobenzamide",6017,DTXSID0045836,NC(=O)c1cc(cc(c1)[N+]([O-])=O)[N+]([O-])=O,"InChI=1S/C7H5N3O5/c8-7(11)4-1-5(9(12)13)3-6(2-4)10(14)15/h1-3H,(H2,8,11)",UUKWKUSGGZNXGA-UHFFFAOYSA-N,?,,"HANSCH,C ET AL. (1995)",0.83
101379,121-82-4,121-82-4,[H]C1([H])N([N+](=O)[O-])C([H])([H])N([N+](=O)[O-])C([H])([H])N1[N+](=O)[O-],"1,3,5,-TRINITROHEXAHYDRO-1,3,5-TRIAZINE",Cyclonite,C3H6N6O6,6018,DTXSID9024142,[O-][N+](=O)N1CN(CN(C1)[N+]([O-])=O)[N+]([O-])=O,InChI=1S/C3H6N6O6/c10-7(11)4-1-5(8(12)13)3-6(2-4)9(14)15/h1-3H2,XTFIVUDBNACUBN-UHFFFAOYSA-N,?,,SANGSTER (1993),0.87
101380,121-87-9,121-87-9,[H]C1=C(Cl)C(N([H])[H])=C([H])C([H])=C1[N+](=O)[O-],2-CHLORO-4-NITROANILINE,2-Chloro-4-nitroaniline,2-chloro-4-nitroaniline,6019,DTXSID4021973,Nc1ccc(cc1Cl)[N+]([O-])=O,"InChI=1S/C6H5ClN2O2/c7-5-3-4(9(10)11)1-2-6(5)8/h1-3H,8H2",LOCWBQIWHWIRGN-UHFFFAOYSA-N,?,,"WU,C ET AL. (2002)",2.14
101382,121-91-5,121-91-5,[H]OC(=O)C1=C([H])C([H])=C([H])C(C(=O)O[H])=C1[H],ISOPHTHALIC ACID,"1,3-Benzenedicarboxylic acid","benzene-1,3-dicarboxylic acid",6021,DTXSID3021485,OC(=O)c1cc(ccc1)C(O)=O,"InChI=1S/C8H6O4/c9-7(10)5-2-1-3-6(4-5)8(11)12/h1-4H,(H,9,10)(H,11,12)",QQVIHTHCMHWDBS-UHFFFAOYSA-N,?,,"HANSCH,C ET AL. (1995)",1.66
101383,121-92-6,121-92-6,[H]OC(=O)C1=C([H])C([N+](=O)[O-])=C([H])C([H])=C1[H],M-NITROBENZOIC ACID,3-Nitrobenzoic acid,3-nitrobenzoic acid,6022,DTXSID0025737,[O-][N+](=O)c1cc(ccc1)C(O)=O,"InChI=1S/C7H5NO4/c9-7(10)5-2-1-3-6(4-5)8(11)12/h1-4H,(H,9,10)",AFPHTEQTJZKQAQ-UHFFFAOYSA-N,?,,"HANSCH,C ET AL. (1995)",1.83
101384,121-98-2,121-98-2,[H]C1=C([H])C(C(=O)OC([H])([H])[H])=C([H])C([H])=C1OC([H])([H])[H],"P-ANISIC ACID, METHYL ESTER",Methyl 4-methoxybenzoate,methyl 4-methoxybenzoate,6023,DTXSID7047645,COC(=O)c1ccc(cc1)OC,"InChI=1S/C9H10O3/c1-11-8-5-3-7(4-6-8)9(10)12-2/h3-6H,1-2H3",DDIZAANNODHTRB-UHFFFAOYSA-N,?,,"HANSCH,C ET AL. (1995)",2.27
101386,122-09-8,122-09-8,[H]C1=C([H])C([H])=C(C([H])([H])C(N([H])[H])(C([H])([H])[H])C([H])([H])[H])C([H])=C1[H],PHENTERMINE,Phentermine,2-methyl-1-phenylpropan-2-amine,6025,DTXSID9023461,CC(C)(N)Cc1ccccc1,"InChI=1S/C10H15N/c1-10(2,11)8-9-6-4-3-5-7-9/h3-7H,8,11H2,1-2H3",DHHVAGZRUROJKS-UHFFFAOYSA-N,?,,"HANSCH,C ET AL. (1995)",1.9
101387,122-11-2,122-11-2,[H]C1=C(OC([H])([H])[H])N=C(OC([H])([H])[H])N=C1N([H])S(=O)(=O)C1=C([H])C([H])=C(N([H])[H])C([H])=C1[H],SULFADIMETHOXINE,Sulfadimethoxine,"4-amino-N-(2,6-dimethoxypyrimidin-4-yl)benzenesulfonamide",6026,DTXSID1023607,COc1[n]c(cc(NS(=O)(=O)c2ccc(N)cc2)[n]1)OC,"InChI=1S/C12H14N4O4S/c1-19-11-7-10(14-12(15-11)20-2)16-21(17,18)9-5-3-8(13)4-6-9/h3-7H,13H2,1-2H3,(H,14,15,16)",ZZORFUFYDOWNEF-UHFFFAOYSA-N,?,,"HANSCH,C ET AL. (1995)",1.63
101388,122-14-5,122-14-5,[H]C1=C(OP(=S)(OC([H])([H])[H])OC([H])([H])[H])C([H])=C(C([H])([H])[H])C([N+](=O)[O-])=C1[H],FENITROTHION,Fenitrothion,"O,O-dimethyl O-(3-methyl-4-nitrophenyl) phosphorothioate",6027,DTXSID4032613,Cc1cc(ccc1[N+]([O-])=O)OP(=S)(OC)OC,"InChI=1S/C9H12NO5PS/c1-7-6-8(4-5-9(7)10(11)12)15-16(17,13-2)14-3/h4-6H,1-3H3",ZNOLGFHPUIJIMJ-UHFFFAOYSA-N,?,,"HANSCH,C ET AL. (1995)",3.3
101390,122-34-9,122-34-9,[H]N(C1=NC(Cl)=NC(N([H])C([H])([H])C([H])([H])[H])=N1)C([H])([H])C([H])([H])[H],SIMAZINE,Simazine,"6-chloro-N,N'-diethyl-1,3,5-triazine-2,4-diamine",6029,DTXSID4021268,CCNc1[n]c(Cl)[n]c(NCC)[n]1,"InChI=1S/C7H12ClN5/c1-3-9-6-11-5(8)12-7(13-6)10-4-2/h3-4H2,1-2H3,(H2,9,10,11,12,13)",ODCWYMIRDDJXKW-UHFFFAOYSA-N,?,,"HANSCH,C ET AL. (1995)",2.18
101391,122-37-2,122-37-2,[H]OC1=C([H])C([H])=C(N([H])C2=C([H])C([H])=C([H])C([H])=C2[H])C([H])=C1[H],"PHENOL, 4-(PHENYLAMINO)-",4-Anilinophenol,4-(phenylamino)phenol,6030,DTXSID5037739,Oc1ccc(cc1)Nc1ccccc1,"InChI=1S/C12H11NO/c14-12-8-6-11(7-9-12)13-10-4-2-1-3-5-10/h1-9,13-14H",JTTMYKSFKOOQLP-UHFFFAOYSA-N,?,,"HANSCH,C ET AL. (1995)",2.82
101392,122-39-4,122-39-4,[H]C1=C([H])C([H])=C(N([H])C2=C([H])C([H])=C([H])C([H])=C2[H])C([H])=C1[H],DIPHENYLAMINE,Diphenylamine,N-phenylaniline,6031,DTXSID4021975,c1ccccc1Nc1ccccc1,"InChI=1S/C12H11N/c1-3-7-11(8-4-1)13-12-9-5-2-6-10-12/h1-10,13H",DMBHHRLKUKUOEG-UHFFFAOYSA-N,?,,"HANSCH,C ET AL. (1995)",3.5
101394,122-46-3,122-46-3,[H]C1=C([H])C(OC(=O)C([H])([H])[H])=C([H])C(C([H])([H])[H])=C1[H],M-TOLYLACETATE,m-Cresyl acetate,3-methylphenyl acetate,6033,DTXSID7046041,Cc1cccc(c1)OC(C)=O,"InChI=1S/C9H10O2/c1-7-4-3-5-9(6-7)11-8(2)10/h3-6H,1-2H3",OTGAHJPFNKQGAE-UHFFFAOYSA-N,?,,"HANSCH,C ET AL. (1995)",2.09
101395,122-51-0,122-51-0,[H]C(OC([H])([H])C([H])([H])[H])(OC([H])([H])C([H])([H])[H])OC([H])([H])C([H])([H])[H],ETHYL ORTHOFORMATE,Ethyl orthoformate,(diethoxymethoxy)ethane,6034,DTXSID8041957,CCOC(OCC)OCC,"InChI=1S/C7H16O3/c1-4-8-7(9-5-2)10-6-3/h7H,4-6H2,1-3H3",GKASDNZWUGIAMG-UHFFFAOYSA-N,?,,"HANSCH,C ET AL. (1995)",1.2
101396,122-57-6,122-57-6,[H]C1=C([H])C([H])=C(/C([H])=C(\[H])C(=O)C([H])([H])[H])C([H])=C1[H],METHYL STYRYL KETONE,Methyl styryl ketone,4-phenylbut-3-en-2-one,6035,DTXSID4025662,CC(=O)C=Cc1ccccc1,"InChI=1S/C10H10O/c1-9(11)7-8-10-5-3-2-4-6-10/h2-8H,1H3/b8-7+",BWHOZHOGCMHOBV-BQYQJAHWSA-N,?,,"HANSCH,C ET AL. (1995)",2.07
101398,122-66-7,122-66-7,[H]C1=C([H])C([H])=C(N([H])N([H])C2=C([H])C([H])=C([H])C([H])=C2[H])C([H])=C1[H],HYDRAZOBENZENE,"1,2-Diphenylhydrazine","1,2-diphenylhydrazine",6037,DTXSID7020710,c1ccccc1NNc1ccccc1,"InChI=1S/C12H12N2/c1-3-7-11(8-4-1)13-14-12-9-5-2-6-10-12/h1-10,13-14H",YBQZXXMEJHZYMB-UHFFFAOYSA-N,?,,"HANSCH,C ET AL. (1995)",2.94
101399,122-69-0,122-69-0,[H]C1=C([H])C([H])=C(/C([H])=C(\[H])C(=O)OC([H])([H])/C([H])=C(\[H])C2=C([H])C([H])=C([H])C([H])=C2[H])C([H])=C1[H],3-PHENYLPROP-2-ENYL CINNAMATE,3-Phenyl-2-propen-1-yl 3-phenylacrylate,3-phenylprop-2-en-1-yl 3-phenylprop-2-enoate,6038,DTXSID7047647,O=C(C=Cc1ccccc1)OCC=Cc1ccccc1,"InChI=1S/C18H16O2/c19-18(14-13-17-10-5-2-6-11-17)20-15-7-12-16-8-3-1-4-9-16/h1-14H,15H2/b12-7+,14-13+",NQBWNECTZUOWID-MZXMXVKLSA-N,?,,"HANSCH,C ET AL. (1995)",4.45
101400,122-78-1,122-78-1,[H]C(=O)C([H])([H])C1=C([H])C([H])=C([H])C([H])=C1[H],PHENYLACETALDEHYDE,Phenylacetaldehyde,phenylacetaldehyde,6039,DTXSID3021483,O=CCc1ccccc1,"InChI=1S/C8H8O/c9-7-6-8-4-2-1-3-5-8/h1-5,7H,6H2",DTUQWGWMVIHBKE-UHFFFAOYSA-N,?,,"HANSCH,C ET AL. (1995)",1.78
101402,122-80-5,122-80-5,[H]C1=C([H])C(N([H])C(=O)C([H])([H])[H])=C([H])C([H])=C1N([H])[H],P-AMINOACETANILIDE,4-Aminoacetanilide,N-(4-aminophenyl)acetamide,6041,DTXSID7024455,CC(=O)Nc1ccc(N)cc1,"InChI=1S/C8H10N2O/c1-6(11)10-8-4-2-7(9)3-5-8/h2-5H,9H2,1H3,(H,10,11)",CHMBIJAOCISYEW-UHFFFAOYSA-N,?,,"HANSCH,C ET AL. (1995)",0.08
101403,122-85-0,122-85-0,[H]C(=O)C1=C([H])C([H])=C(N([H])C(=O)C([H])([H])[H])C([H])=C1[H],P-FORMYLACETANILIDE,"Acetamide, N-(4-formylphenyl)-",N-(4-formylphenyl)acetamide,6042,DTXSID4059546,CC(=O)Nc1ccc(cc1)C=O,"InChI=1S/C9H9NO2/c1-7(12)10-9-4-2-8(6-11)3-5-9/h2-6H,1H3,(H,10,12)",SKLUWKYNZNXSLX-UHFFFAOYSA-N,?,,"HANSCH,C ET AL. (1995)",1.25
101404,122-88-3,122-88-3,[H]OC(=O)C([H])([H])OC1=C([H])C([H])=C(Cl)C([H])=C1[H],P-CHLOROPHENOXYACETIC ACID,4-Chlorophenoxyacetic acid,(4-chlorophenoxy)acetic acid,6043,DTXSID9034282,OC(=O)COc1ccc(Cl)cc1,"InChI=1S/C8H7ClO3/c9-6-1-3-7(4-2-6)12-5-8(10)11/h1-4H,5H2,(H,10,11)",SODPIMGUZLOIPE-UHFFFAOYSA-N,?,,"HANSCH,C ET AL. (1995)",2.25
101406,122-97-4,122-97-4,[H]OC([H])([H])C([H])([H])C([H])([H])C1=C([H])C([H])=C([H])C([H])=C1[H],3-PHENYLPROPANOL,3-Phenyl-1-propanol,3-phenylpropan-1-ol,6045,DTXSID6041638,OCCCc1ccccc1,"InChI=1S/C9H12O/c10-8-4-7-9-5-2-1-3-6-9/h1-3,5-6,10H,4,7-8H2",VAJVDSVGBWFCLW-UHFFFAOYSA-N,?,,"HANSCH,C ET AL. (1995)",1.88
101407,122-98-5,122-98-5,[H]OC([H])([H])C([H])([H])N([H])C1=C([H])C([H])=C([H])C([H])=C1[H],2-ANILINOETHANOL,"Ethanol, 2-(phenylamino)-",2-(Phenylamino)ethanol,6046,DTXSID8059550,OCCNc1ccccc1,"InChI=1S/C8H11NO/c10-7-6-9-8-4-2-1-3-5-8/h1-5,9-10H,6-7H2",MWGATWIBSKHFMR-UHFFFAOYSA-N,?,,"HANSCH,C ET AL. (1995)",0.82
101408,122-99-6,122-99-6,[H]OC([H])([H])C([H])([H])OC1=C([H])C([H])=C([H])C([H])=C1[H],2-PHENOXYETHANOL,2-Phenoxyethanol,2-phenoxyethanol,6047,DTXSID9021976,OCCOc1ccccc1,"InChI=1S/C8H10O2/c9-6-7-10-8-4-2-1-3-5-8/h1-5,9H,6-7H2",QCDWFXQBSFUVSP-UHFFFAOYSA-N,?,,"HANSCH,C ET AL. (1995)",1.16
101410,123-02-4,123-02-4,[H]C1=C([H])C([H])=C(C([H])([H])C([H])([H])C([H])([H])C([H])([H])C([H])([H])C([H])([H])C([H])([H])C([H])([H])C([H])([H])C([H])([H])C([H])([H])C([H])([H])C([H])([H])[H])C([H])=C1[H],1-PHENYLTRIDECANE,1-Phenyltridecane,tridecylbenzene,6049,DTXSID7040784,CCCCCCCCCCCCCc1ccccc1,"InChI=1S/C19H32/c1-2-3-4-5-6-7-8-9-10-11-13-16-19-17-14-12-15-18-19/h12,14-15,17-18H,2-11,13,16H2,1H3",MCVUKOYZUCWLQQ-UHFFFAOYSA-N,?,,"SHERBLOM,PM ET AL. (1992)",9.36
101412,123-07-9,123-07-9,[H]OC1=C([H])C([H])=C(C([H])([H])C([H])([H])[H])C([H])=C1[H],P-ETHYLPHENOL,4-Ethylphenol,4-ethylphenol,6050,DTXSID4021977,CCc1ccc(O)cc1,"InChI=1S/C8H10O/c1-2-7-3-5-8(9)6-4-7/h3-6,9H,2H2,1H3",HXDOZKJGKXYMEW-UHFFFAOYSA-N,?,,"HANSCH,C ET AL. (1995)",2.58
101413,123-08-0,123-08-0,[H]OC1=C([H])C([H])=C(C([H])=O)C([H])=C1[H],4-HYDROXYBENZALDEHYDE,p-Hydroxybenzaldehyde,4-HYDROXYBENZALDEHYDE,6051,DTXSID8059552,Oc1ccc(C=O)cc1,"InChI=1S/C7H6O2/c8-5-6-1-3-7(9)4-2-6/h1-5,9H",RGHHSNMVTDWUBI-UHFFFAOYSA-N,?,,"HANSCH,C ET AL. (1995)",1.35
101415,123-25-1,123-25-1,[H]C([H])([H])C([H])([H])OC(=O)C([H])([H])C([H])([H])C(=O)OC([H])([H])C([H])([H])[H],DIETHYL SUCCINATE,Diethyl butanedioate,diethyl butanedioate,6053,DTXSID2038732,CCOC(=O)CCC(=O)OCC,"InChI=1S/C8H14O4/c1-3-11-7(9)5-6-8(10)12-4-2/h3-6H2,1-2H3",DKMROQRQHGEIOW-UHFFFAOYSA-N,?,,"CATZ,P & FRIEND,D (1989)",1.2
101416,123-30-8,123-30-8,[H]OC1=C([H])C([H])=C(N([H])[H])C([H])=C1[H],"PHENOL, 4-AMINO-",4-Aminophenol,4-aminophenol,6054,DTXSID3024499,Nc1ccc(O)cc1,"InChI=1S/C6H7NO/c7-5-1-3-6(8)4-2-5/h1-4,8H,7H2",PLIKAWJENQZMHA-UHFFFAOYSA-N,?,,"HANSCH,C ET AL. (1995)",0.04
101417,123-31-9,123-31-9,[H]OC1=C([H])C([H])=C(O[H])C([H])=C1[H],HYDROQUINONE,Hydroquinone,"benzene-1,4-diol",6055,DTXSID7020716,Oc1ccc(O)cc1,"InChI=1S/C6H6O2/c7-5-1-2-6(8)4-3-5/h1-4,7-8H",QIGBRXMKCJKVMJ-UHFFFAOYSA-N,?,,"HANSCH,C ET AL. (1995)",0.59
101419,123-33-1|129016-38-2,123-33-1,[H]C1=C([H])C(=O)N([H])N([H])C1=O,"MALEIC HYDRAZIDE, 3(2H)-PYRIDAZINONE, 6-HYDROXY-",Maleic hydrazide,"1,2-dihydropyridazine-3,6-dione",6057|15083,DTXSID9020792,O=C1C=CC(=O)NN1,"InChI=1S/C4H4N2O2/c7-3-1-2-4(8)6-5-3/h1-2H,(H,5,7)(H,6,8)",BGRDGMRNKXEXQD-UHFFFAOYSA-N,?,,"HANSCH,C ET AL. (1995)",-0.84
101420,123-35-3,123-35-3,[H]C([H])=C([H])C(=C([H])[H])C([H])([H])C([H])([H])C([H])=C(C([H])([H])[H])C([H])([H])[H],"3-METHYLENE-7-METHYL-1,6-OCTADIENE  (MYRCENE)",Myrcene,"7-methyl-3-methylideneocta-1,6-diene",6058,DTXSID6025692,CC(C)=CCCC(=C)C=C,"InChI=1S/C10H16/c1-5-10(4)8-6-7-9(2)3/h5,7H,1,4,6,8H2,2-3H3",UAHWPYUMFXYFJY-UHFFFAOYSA-N,?,,CHEMICALS INSPECTION AND TESTING INSTITU (1992),4.17
101421,123-38-6,123-38-6,[H]C(=O)C([H])([H])C([H])([H])[H],PROPIONALDEHYDE,Propanal,propanal,6059,DTXSID2021658,CCC=O,"InChI=1S/C3H6O/c1-2-3-4/h3H,2H2,1H3",NBBJYMSMWIIQGU-UHFFFAOYSA-N,?,,"HANSCH,C ET AL. (1995)",0.59
101424,123-54-6,123-54-6,[H]C([H])([H])C(=O)C([H])([H])C(=O)C([H])([H])[H],"2,4-PENTANEDIONE","2,4-Pentanedione","pentane-2,4-dione",6061,DTXSID4021979,CC(=O)CC(C)=O,"InChI=1S/C5H8O2/c1-4(6)3-5(2)7/h3H2,1-2H3",YRKCREAYFQTBPV-UHFFFAOYSA-N,?,,"HANSCH,C ET AL. (1995)",0.4
101425,123-63-7,123-63-7,[H]C([H])([H])C1([H])OC([H])(C([H])([H])[H])OC([H])(C([H])([H])[H])O1,PARALDEHYDE,Paraldehyde,"2,4,6-trimethyl-1,3,5-trioxane",6062,DTXSID9023419,CC1OC(C)OC(C)O1,"InChI=1S/C6H12O3/c1-4-7-5(2)9-6(3)8-4/h4-6H,1-3H3",SQYNKIJPMDEDEG-UHFFFAOYSA-N,?,,"HANSCH,C ET AL. (1995)",0.67
101426,123-72-8,123-72-8,[H]C(=O)C([H])([H])C([H])([H])C([H])([H])[H],BUTYRALDEHYDE,Butyraldehyde,butanal,6063,DTXSID8021513,CCCC=O,"InChI=1S/C4H8O/c1-2-3-4-5/h4H,2-3H2,1H3",ZTQSAGDEMFDKMZ-UHFFFAOYSA-N,?,,"HANSCH,C ET AL. (1995)",0.88
101428,123-76-2,123-76-2,[H]OC(=O)C([H])([H])C([H])([H])C(=O)C([H])([H])[H],LEVULINIC ACID,4-Oxopentanoic acid,4-oxopentanoic acid,6065,DTXSID8021648,CC(=O)CCC(O)=O,"InChI=1S/C5H8O3/c1-4(6)2-3-5(7)8/h2-3H2,1H3,(H,7,8)",JOOXCMJARBKPKM-UHFFFAOYSA-N,?,,"HANSCH,C ET AL. (1995)",-0.49
101429,123-77-3,123-77-3,[H]N([H])C(=O)/N=N/C(=O)N([H])[H],Diazenedicarboxamide,Azodicarbonamide,"diazene-1,2-dicarboxamide",6066,DTXSID0024553,NC(=O)N=NC(N)=O,"InChI=1S/C2H4N4O2/c3-1(7)5-6-2(4)8/h(H2,3,7)(H2,4,8)/b6-5+",XOZUGNYVDXMRKW-AATRIKPKSA-N,?,,"VERSCHUEREN,K (1996)",-1.7
101430,123-82-0,123-82-0,[H]N([H])C([H])(C([H])([H])[H])C([H])([H])C([H])([H])C([H])([H])C([H])([H])C([H])([H])[H],2-Heptanamine,2-Aminoheptane,heptan-2-amine,6067,DTXSID6048468,CCCCCC(C)N,"InChI=1S/C7H17N/c1-3-4-5-6-7(2)8/h7H,3-6,8H2,1-2H3",VSRBKQFNFZQRBM-UHFFFAOYSA-N,?,,SANGSTER (1994),2.4
101432,123-91-1,123-91-1,[H]C1([H])OC([H])([H])C([H])([H])OC1([H])[H],"1,4-DIOXANE","1,4-Dioxane","1,4-dioxane",6069,DTXSID4020533,C1COCCO1,InChI=1S/C4H8O2/c1-2-6-4-3-5-1/h1-4H2,RYHBNJHYFVUHQT-UHFFFAOYSA-N,?,,"HANSCH,C ET AL. (1995)",-0.27
101433,123-92-2,123-92-2,[H]C([H])([H])C(=O)OC([H])([H])C([H])([H])C([H])(C([H])([H])[H])C([H])([H])[H],ISOAMYL ACETATE,3-Methylbutyl acetate,3-methylbutyl acetate,6070,DTXSID9025453,CC(C)CCOC(C)=O,"InChI=1S/C7H14O2/c1-6(2)4-5-9-7(3)8/h6H,4-5H2,1-3H3",MLFHJEHSLIIPHL-UHFFFAOYSA-N,?,,DAYLIGHT (2003),2.25
101434,123-96-6,123-96-6,[H]OC([H])(C([H])([H])[H])C([H])([H])C([H])([H])C([H])([H])C([H])([H])C([H])([H])C([H])([H])[H],2-OCTANOL,2-Octanol,octan-2-ol,6071,DTXSID0027014,CCCCCCC(C)O,"InChI=1S/C8H18O/c1-3-4-5-6-7-8(2)9/h8-9H,3-7H2,1-2H3",SJWFXCIHNDVPSH-UHFFFAOYSA-N,?,,"FUNASAKI,N ET AL. (1986)",2.9
101436,124-02-7,124-02-7,[H]C([H])=C([H])C([H])([H])N([H])C([H])([H])C([H])=C([H])[H],DIALLYLAMINE,Diallylamine,N-(prop-2-en-1-yl)prop-2-en-1-amine,6073,DTXSID1024918,C=CCNCC=C,"InChI=1S/C6H11N/c1-3-5-7-6-4-2/h3-4,7H,1-2,5-6H2",DYUWTXWIYMHBQS-UHFFFAOYSA-N,?,,"HANSCH,C ET AL. (1995)",1.11
101437,124-04-9,124-04-9,[H]OC(=O)C([H])([H])C([H])([H])C([H])([H])C([H])([H])C(=O)O[H],HEXANEDIOIC ACID,Hexanedioic acid,hexanedioic acid,6074,DTXSID7021605,OC(=O)CCCCC(O)=O,"InChI=1S/C6H10O4/c7-5(8)3-1-2-4-6(9)10/h1-4H2,(H,7,8)(H,9,10)",WNLRTRBMVRJNCN-UHFFFAOYSA-N,?,,"HANSCH,C ET AL. (1995)",0.08
101438,124-07-2,124-07-2,[H]OC(=O)C([H])([H])C([H])([H])C([H])([H])C([H])([H])C([H])([H])C([H])([H])C([H])([H])[H],OCTANOIC ACID,Octanoic acid,octanoic acid,6075,DTXSID3021645,CCCCCCCC(O)=O,"InChI=1S/C8H16O2/c1-2-3-4-5-6-7-8(9)10/h2-7H2,1H3,(H,9,10)",WWZKQHOCKIZLMA-UHFFFAOYSA-N,?,,"HANSCH,C ET AL. (1995)",3.05
101440,124-11-8,124-11-8,[H]C([H])=C([H])C([H])([H])C([H])([H])C([H])([H])C([H])([H])C([H])([H])C([H])([H])C([H])([H])[H],ISONONENE,1-Nonene,non-1-ene,6077,DTXSID2059562,CCCCCCCC=C,"InChI=1S/C9H18/c1-3-5-7-9-8-6-4-2/h3H,1,4-9H2,2H3",JRZJOMJEPLMPRA-UHFFFAOYSA-N,?,,"HANSCH,C ET AL. (1995)",5.15
101441,124-12-9,124-12-9,[H]C([H])([H])C([H])([H])C([H])([H])C([H])([H])C([H])([H])C([H])([H])C([H])([H])C#N,OCTANONITRILE,Octanenitrile,octanenitrile,6078,DTXSID1047655,CCCCCCCC#N,"InChI=1S/C8H15N/c1-2-3-4-5-6-7-8-9/h2-7H2,1H3",YSIMAPNUZAVQER-UHFFFAOYSA-N,?,,"TANII,H & HASHIMOTO,K (1984)",2.75
101442,124-18-5,124-18-5,[H]C([H])([H])C([H])([H])C([H])([H])C([H])([H])C([H])([H])C([H])([H])C([H])([H])C([H])([H])C([H])([H])C([H])([H])[H],N-DECANE,Decane,decane,6079,DTXSID6024913,CCCCCCCCCC,"InChI=1S/C10H22/c1-3-5-7-9-10-8-6-4-2/h3-10H2,1-2H3",DIOQZVSQGTUSAI-UHFFFAOYSA-N,?,,"COATES,M ET AL. (1985)",5.01
101444,124-40-3,124-40-3,[H]N(C([H])([H])[H])C([H])([H])[H],DIMETHYLAMINE,Dimethylamine,N-methylmethanamine,6081,DTXSID5024057,CNC,"InChI=1S/C2H7N/c1-3-2/h3H,1-2H3",ROSDSFDQCJNGOL-UHFFFAOYSA-N,?,,"HANSCH,C ET AL. (1995)",-0.38
101445,124-48-1,124-48-1,[H]C(Cl)(Br)Br,DIBROMOCHLOROMETHANE,Chlorodibromomethane,dibromo(chloro)methane,6082,DTXSID1020300,ClC(Br)Br,InChI=1S/CHBr2Cl/c2-1(3)4/h1H,GATVIKZLVQHOMN-UHFFFAOYSA-N,?,,SANGSTER (1994),2.16
101446,124-76-5|464-45-9|507-70-0,124-76-5|464-45-9|507-70-0,[H]OC1([H])C([H])([H])C2([H])C([H])([H])C([H])([H])C1(C([H])([H])[H])C2(C([H])([H])[H])C([H])([H])[H],"ISOBORNEOL, Borneol, BORNEOL",Isoborneol,"(1R,2R,4R)-1,7,7-trimethylbicyclo[2.2.1]heptan-2-ol",6083|6581|6685,DTXSID2042060|DTXSID3022035|DTXSID3052143,CC1(C)C2CC(O)C1(C)CC2,"InChI=1S/C10H18O/c1-9(2)7-4-5-10(9,3)8(11)6-7/h7-8,11H,4-6H2,1-3H3",DTGKSKDOIYIVQL-UHFFFAOYSA-N,?,,"GRIFFIN,S ET AL. (1999)",3.24
101449,125-12-2,125-12-2,[H]C([H])([H])C(=O)OC1([H])C([H])([H])C2([H])C([H])([H])C([H])([H])C1(C([H])([H])[H])C2(C([H])([H])[H])C([H])([H])[H],Pichtosin,Isobornyl acetate,"(1R,2R,4R)-1,7,7-trimethylbicyclo[2.2.1]hept-2-yl acetate",6085,DTXSID7042061,CC1(C)C2CC(OC(C)=O)C1(C)CC2,"InChI=1S/C12H20O2/c1-8(13)14-10-7-9-5-6-12(10,4)11(9,2)3/h9-10H,5-7H2,1-4H3",KGEKLUUHTZCSIP-UHFFFAOYSA-N,?,,"SIMONICH,SL ET AL. (2000)",4.3
101450,125-33-7,125-33-7,[H]C1=C([H])C([H])=C(C2(C([H])([H])C([H])([H])[H])C(=O)N([H])C([H])([H])N([H])C2=O)C([H])=C1[H],PRIMIDONE,Primidone,"5-ethyl-5-phenyldihydropyrimidine-4,6(1H,5H)-dione",6086,DTXSID7023510,CCC1(C(=O)NCNC1=O)c1ccccc1,"InChI=1S/C12H14N2O2/c1-2-12(9-6-4-3-5-7-9)10(15)13-8-14-11(12)16/h3-7H,2,8H2,1H3,(H,13,15)(H,14,16)",DQMZLTXERSFNPB-UHFFFAOYSA-N,?,,"HANSCH,C ET AL. (1995)",0.91
101451,125-40-6,125-40-6,[H]N1C(=O)N([H])C(=O)C(C([H])([H])C([H])([H])[H])(C([H])(C([H])([H])[H])C([H])([H])C([H])([H])[H])C1=O,BUTABARBITAL,Butabarbital,"5-(butan-2-yl)-5-ethylpyrimidine-2,4,6(1H,3H,5H)-trione",6087,DTXSID2022709,CC(CC)C1(CC)C(=O)NC(=O)NC1=O,"InChI=1S/C10H16N2O3/c1-4-6(3)10(5-2)7(13)11-9(15)12-8(10)14/h6H,4-5H2,1-3H3,(H2,11,12,13,14,15)",ZRIHAIZYIMGOAB-UHFFFAOYSA-N,?,,"WONG,O & MCKEOWN,RH (1988)",1.65