ChemID,source_casrn,CAS,SMILES,NAME,preferred_name,iupac,MPID,dsstox_substance_id,Canonical_QSARr,InChI_Code_QSARr,InChI Key_QSARr,Salt_Solvent,Salt_Solvent_ID,Kow Reference,LogP
100863,99-24-1,99-24-1,[H]OC1=C([H])C(C(=O)OC([H])([H])[H])=C([H])C(O[H])=C1O[H],METHYL GALLATE,"Benzoic acid, 3,4,5-trihydroxy-, methyl ester","Methyl 3,4,5-trihydroxybenzoate",5509,DTXSID3059189,COC(=O)c1cc(O)c(O)c(O)c1,"InChI=1S/C8H8O5/c1-13-8(12)4-2-5(9)7(11)6(10)3-4/h2-3,9-11H,1H3",FBSFWRHWHYMIOG-UHFFFAOYSA-N,?,,"HANSCH,C ET AL. (1995)",0.86
100865,99-30-9,99-30-9,[H]C1=C(Cl)C(N([H])[H])=C(Cl)C([H])=C1[N+](=O)[O-],"2,6-DICHLORO-4-NITROANILINE",Dicloran,"2,6-dichloro-4-nitroaniline",5511,DTXSID2020426,Nc1c(Cl)cc(cc1Cl)[N+]([O-])=O,"InChI=1S/C6H4Cl2N2O2/c7-4-1-3(10(11)12)2-5(8)6(4)9/h1-2H,9H2",BIXZHMJUSMUDOQ-UHFFFAOYSA-N,?,,"TOMLIN,C (1997)",2.8
100866,99-34-3,99-34-3,[H]OC(=O)C1=C([H])C([N+](=O)[O-])=C([H])C([N+](=O)[O-])=C1[H],"3,5-DINITROBENZOIC ACID","3,5-Dinitrobenzoic acid","3,5-Dinitrobenzoic acid",5512,DTXSID7059195,[O-][N+](=O)c1cc(cc(c1)[N+]([O-])=O)C(O)=O,"InChI=1S/C7H4N2O6/c10-7(11)4-1-5(8(12)13)3-6(2-4)9(14)15/h1-3H,(H,10,11)",VYWYYJYRVSBHJQ-UHFFFAOYSA-N,?,,"HANSCH,C ET AL. (1995)",1.55
100867,99-35-4,99-35-4,[H]C1=C([N+](=O)[O-])C([H])=C([N+](=O)[O-])C([H])=C1[N+](=O)[O-],"1,3,5-TRINITROBENZENE","1,3,5-Trinitrobenzene","1,3,5-trinitrobenzene",5513,DTXSID6021406,[O-][N+](=O)c1cc(cc(c1)[N+]([O-])=O)[N+]([O-])=O,InChI=1S/C6H3N3O6/c10-7(11)4-1-5(8(12)13)3-6(2-4)9(14)15/h1-3H,UATJOMSPNYCXIX-UHFFFAOYSA-N,?,,"HANSCH,C ET AL. (1995)",1.18
100869,99-48-9,99-48-9,[H]OC1([H])C(C([H])([H])[H])=C([H])C([H])([H])C([H])(C(=C([H])[H])C([H])([H])[H])C1([H])[H],"2-Cyclohexen-1-ol, 2-methyl-5-(1-methylethenyl)-",Carveol,2-methyl-5-(prop-1-en-2-yl)cyclohex-2-en-1-ol,5515,DTXSID3024736,CC1=CCC(CC1O)C(C)=C,"InChI=1S/C10H16O/c1-7(2)9-5-4-8(3)10(11)6-9/h4,9-11H,1,5-6H2,2-3H3",BAVONGHXFVOKBV-UHFFFAOYSA-N,?,,"GRIFFIN,S ET AL. (1999)",3.12
100870,99-50-3,99-50-3,[H]OC(=O)C1=C([H])C([H])=C(O[H])C(O[H])=C1[H],"3,4-DIHYDROXYBENZOIC ACID","3,4-Dihydroxybenzoic acid","3,4-dihydroxybenzoic acid",5516,DTXSID4021212,Oc1cc(ccc1O)C(O)=O,"InChI=1S/C7H6O4/c8-5-2-1-4(7(10)11)3-6(5)9/h1-3,8-9H,(H,10,11)",YQUVCSBJEUQKSH-UHFFFAOYSA-N,?,,"HANSCH,C ET AL. (1995)",0.86
100871,99-51-4,99-51-4,[H]C1=C([H])C(C([H])([H])[H])=C(C([H])([H])[H])C([H])=C1[N+](=O)[O-],"1,2-DIMETHYL-4-NITROBENZENE","1,2-Dimethyl-4-nitrobenzene","1,2-dimethyl-4-nitrobenzene",5517,DTXSID2025133,Cc1cc(ccc1C)[N+]([O-])=O,"InChI=1S/C8H9NO2/c1-6-3-4-8(9(10)11)5-7(6)2/h3-5H,1-2H3",HFZKOYWDLDYELC-UHFFFAOYSA-N,?,,"DENEER,JW ET AL. (1987)",2.91
100873,99-55-8,99-55-8,[H]C1=C(N([H])[H])C(C([H])([H])[H])=C([H])C([H])=C1[N+](=O)[O-],5-NITRO-2-TOLUIDINE,2-Methyl-5-nitroaniline,2-methyl-5-nitroaniline,5519,DTXSID4020959,Cc1ccc(cc1N)[N+]([O-])=O,"InChI=1S/C7H8N2O2/c1-5-2-3-6(9(10)11)4-7(5)8/h2-4H,8H2,1H3",DSBIJCMXAIKKKI-UHFFFAOYSA-N,?,,"HANSCH,C ET AL. (1995)",1.87
100874,99-56-9,99-56-9,[H]C1=C(N([H])[H])C(N([H])[H])=C([H])C([N+](=O)[O-])=C1[H],2-AMINO-4-NITROANILINE,"4-Nitro-1,2-phenylenediamine","4-nitrobenzene-1,2-diamine",5520,DTXSID9020958,Nc1cc(ccc1N)[N+]([O-])=O,"InChI=1S/C6H7N3O2/c7-5-2-1-4(9(10)11)3-6(5)8/h1-3H,7-8H2",RAUWPNXIALNKQM-UHFFFAOYSA-N,?,,"HANSCH,C ET AL. (1995)",0.88
100875,99-57-0,99-57-0,[H]OC1=C([H])C([H])=C([N+](=O)[O-])C([H])=C1N([H])[H],2-AMINO-4-NITROPHENOL,2-Amino-4-nitrophenol,2-amino-4-nitrophenol,5521,DTXSID6020062,Nc1cc(ccc1O)[N+]([O-])=O,"InChI=1S/C6H6N2O3/c7-5-3-4(8(10)11)1-2-6(5)9/h1-3,9H,7H2",VLZVIIYRNMWPSN-UHFFFAOYSA-N,?,,SANGSTER (1994),1.26
100877,99-60-5,99-60-5,[H]OC(=O)C1=C([H])C([H])=C([N+](=O)[O-])C([H])=C1Cl,"BENZOIC ACID, 2-CHLORO-4-NITRO-","Benzoic acid, 2-chloro-4-nitro-",2-Chloro-4-nitrobenzoic acid,5523,DTXSID2059198,[O-][N+](=O)c1cc(Cl)c(cc1)C(O)=O,"InChI=1S/C7H4ClNO4/c8-6-3-4(9(12)13)1-2-5(6)7(10)11/h1-3H,(H,10,11)",QAYNSPOKTRVZRC-UHFFFAOYSA-N,?,,"HANSCH,C ET AL. (1995)",2.03
100878,99-61-6,99-61-6,[H]C(=O)C1=C([H])C([H])=C([H])C([N+](=O)[O-])=C1[H],M-NITROBENZALDEHYDE,3-Nitrobenzaldehyde,3-nitrobenzaldehyde,5524,DTXSID8049383,[O-][N+](=O)c1cccc(c1)C=O,InChI=1S/C7H5NO3/c9-5-6-2-1-3-7(4-6)8(10)11/h1-5H,ZETIVVHRRQLWFW-UHFFFAOYSA-N,?,,"HANSCH,C ET AL. (1995)",1.47
100879,99-65-0,99-65-0,[H]C1=C([H])C([N+](=O)[O-])=C([H])C([N+](=O)[O-])=C1[H],"1,3-DINITROBENZENE","1,3-Dinitrobenzene","1,3-dinitrobenzene",5525,DTXSID9024065,[O-][N+](=O)c1cc(ccc1)[N+]([O-])=O,InChI=1S/C6H4N2O4/c9-7(10)5-2-1-3-6(4-5)8(11)12/h1-4H,WDCYWAQPCXBPJA-UHFFFAOYSA-N,?,,"HANSCH,C ET AL. (1995)",1.49
100881,99-71-8,99-71-8,[H]OC1=C([H])C([H])=C(C([H])(C([H])([H])[H])C([H])([H])C([H])([H])[H])C([H])=C1[H],P-(SEC-BUTYL)PHENOL,4-(Butan-2-yl)phenol,4-(butan-2-yl)phenol,5527,DTXSID7022332,CCC(C)c1ccc(O)cc1,"InChI=1S/C10H14O/c1-3-8(2)9-4-6-10(11)7-5-9/h4-8,11H,3H2,1-2H3",ZUTYZAFDFLLILI-UHFFFAOYSA-N,?,,"HANSCH,C ET AL. (1995)",3.08
100882,99-75-2,99-75-2,[H]C1=C([H])C(C([H])([H])[H])=C([H])C([H])=C1C(=O)OC([H])([H])[H],"BENZOIC ACID, 4-METHYL-, METHYL ESTER",Methyl 4-methylbenzoate,methyl 4-methylbenzoate,5528,DTXSID4025668,Cc1ccc(cc1)C(=O)OC,"InChI=1S/C9H10O2/c1-7-3-5-8(6-4-7)9(10)11-2/h3-6H,1-2H3",QSSJZLPUHJDYKF-UHFFFAOYSA-N,?,,"SOTOMATSU,T ET AL. (1993)",2.7
100883,99-76-3,99-76-3,[H]OC1=C([H])C([H])=C(C(=O)OC([H])([H])[H])C([H])=C1[H],4-HYDROXY METHYL BENZOATE,Methylparaben,methyl 4-hydroxybenzoate,5529,DTXSID4022529,COC(=O)c1ccc(O)cc1,"InChI=1S/C8H8O3/c1-11-8(10)6-2-4-7(9)5-3-6/h2-5,9H,1H3",LXCFILQKKLGQFO-UHFFFAOYSA-N,?,,"HANSCH,C ET AL. (1995)",1.96
100885,99-82-1,99-82-1,[H]C([H])([H])C1([H])C([H])([H])C([H])([H])C([H])(C([H])(C([H])([H])[H])C([H])([H])[H])C([H])([H])C1([H])[H],P-MENTHANE,p-Menthane,1-methyl-4-(propan-2-yl)cyclohexane,5531,DTXSID9025530,CC(C)C1CCC(C)CC1,"InChI=1S/C10H20/c1-8(2)10-6-4-9(3)5-7-10/h8-10H,4-7H2,1-3H3",CFJYNSNXFXLKNS-UHFFFAOYSA-N,?,,CHEMICALS INSPECTION AND TESTING INSTITU (1992),5.56
100886,99-85-4,99-85-4,[H]C1=C(C([H])([H])[H])C([H])([H])C([H])=C(C([H])(C([H])([H])[H])C([H])([H])[H])C1([H])[H],GAMMA-TERPINENE,gamma-Terpinene,"1-methyl-4-(propan-2-yl)cyclohexa-1,4-diene",5532,DTXSID6041210,CC1CC=C(CC=1)C(C)C,"InChI=1S/C10H16/c1-8(2)10-6-4-9(3)5-7-10/h4,7-8H,5-6H2,1-3H3",YKFLAYDHMOASIY-UHFFFAOYSA-N,?,,"LI,J & PERDUE,EM (1995)",4.5
100887,99-86-5,99-86-5,[H]C1=C(C([H])([H])[H])C([H])([H])C([H])([H])C(C([H])(C([H])([H])[H])C([H])([H])[H])=C1[H],alpha-Terpinene,alpha-Terpinene,"1-methyl-4-(propan-2-yl)cyclohexa-1,3-diene",5533,DTXSID9041237,CC1CCC(=CC=1)C(C)C,"InChI=1S/C10H16/c1-8(2)10-6-4-9(3)5-7-10/h4,6,8H,5,7H2,1-3H3",YHQGMYUVUMAZJR-UHFFFAOYSA-N,?,,"GRIFFIN,S ET AL. (1999)",4.25
100889,99-88-7,99-88-7,[H]C1=C([H])C(C([H])(C([H])([H])[H])C([H])([H])[H])=C([H])C([H])=C1N([H])[H],P-ISOPROPYLANILINE,Cumidine,4-propan-2-ylaniline,5535,DTXSID20243932,CC(C)c1ccc(N)cc1,"InChI=1S/C9H13N/c1-7(2)8-3-5-9(10)6-4-8/h3-7H,10H2,1-2H3",LRTFPLFDLJYEKT-UHFFFAOYSA-N,?,,SANGSTER (1994),2.49
100890,99-89-8,99-89-8,[H]OC1=C([H])C([H])=C(C([H])(C([H])([H])[H])C([H])([H])[H])C([H])=C1[H],P-ISOPROPYLPHENOL,4-Isopropylphenol,4-(propan-2-yl)phenol,5536,DTXSID5042299,CC(C)c1ccc(O)cc1,"InChI=1S/C9H12O/c1-7(2)8-3-5-9(10)6-4-8/h3-7,10H,1-2H3",YQUQWHNMBPIWGK-UHFFFAOYSA-N,?,,"HANSCH,C ET AL. (1995)",2.9
100891,99-90-1,99-90-1,[H]C1=C([H])C(C(=O)C([H])([H])[H])=C([H])C([H])=C1Br,P-BROMOACETOPHENONE,"Ethanone, 1-(4-bromophenyl)-",1-(4-Bromophenyl)ethanone,5537,DTXSID4059203,CC(=O)c1ccc(Br)cc1,"InChI=1S/C8H7BrO/c1-6(10)7-2-4-8(9)5-3-7/h2-5H,1H3",WYECURVXVYPVAT-UHFFFAOYSA-N,?,,"HANSCH,C ET AL. (1995)",2.43
100893,99-92-3,99-92-3,[H]C1=C([H])C(N([H])[H])=C([H])C([H])=C1C(=O)C([H])([H])[H],4-AMINOACETOPHENONE,4-Aminoacetophenone,1-(4-aminophenyl)ethanone,5539,DTXSID6052669,CC(=O)c1ccc(N)cc1,"InChI=1S/C8H9NO/c1-6(10)7-2-4-8(9)5-3-7/h2-5H,9H2,1H3",GPRYKVSEZCQIHD-UHFFFAOYSA-N,?,,"HANSCH,C ET AL. (1995)",0.83
100894,99-93-4,99-93-4,[H]OC1=C([H])C([H])=C(C(=O)C([H])([H])[H])C([H])=C1[H],P-HYDROXYACETOPHENONE,4-Hydroxyacetophenone,1-(4-hydroxyphenyl)ethanone,5540,DTXSID0029133,CC(=O)c1ccc(O)cc1,"InChI=1S/C8H8O2/c1-6(9)7-2-4-8(10)5-3-7/h2-5,10H,1H3",TXFPEBPIARQUIG-UHFFFAOYSA-N,?,,"HANSCH,C ET AL. (1995)",1.35
100895,99-94-5,99-94-5,[H]OC(=O)C1=C([H])C([H])=C(C([H])([H])[H])C([H])=C1[H],P-TOLUIC ACID,4-Methylbenzoic acid,4-methylbenzoic acid,5541,DTXSID6021618,Cc1ccc(cc1)C(O)=O,"InChI=1S/C8H8O2/c1-6-2-4-7(5-3-6)8(9)10/h2-5H,1H3,(H,9,10)",LPNBBFKOUUSUDB-UHFFFAOYSA-N,?,,"HANSCH,C ET AL. (1995)",2.27
100897,99-97-8,99-97-8,[H]C1=C([H])C(C([H])([H])[H])=C([H])C([H])=C1N(C([H])([H])[H])C([H])([H])[H],"N,N,4-TRIMETHYLANILINE","N,N,4-Trimethylaniline","N,N,4-trimethylaniline",5543,DTXSID0021832,Cc1ccc(cc1)N(C)C,"InChI=1S/C9H13N/c1-8-4-6-9(7-5-8)10(2)3/h4-7H,1-3H3",GYVGXEWAOAAJEU-UHFFFAOYSA-N,?,,SANGSTER (1993),2.81
100898,99-99-0,99-99-0,[H]C1=C([H])C(C([H])([H])[H])=C([H])C([H])=C1[N+](=O)[O-],P-NITROTOLUENE,4-Nitrotoluene,1-methyl-4-nitrobenzene,5544,DTXSID5023792,Cc1ccc(cc1)[N+]([O-])=O,"InChI=1S/C7H7NO2/c1-6-2-4-7(5-3-6)8(9)10/h2-5H,1H3",ZPTVNYMJQHSSEA-UHFFFAOYSA-N,?,,"HANSCH,C ET AL. (1995)",2.37
100899,100-00-5,100-00-5,[H]C1=C([H])C([N+](=O)[O-])=C([H])C([H])=C1Cl,P-CHLORONITROBENZENE,1-Chloro-4-nitrobenzene,1-chloro-4-nitrobenzene,5545,DTXSID5020281,[O-][N+](=O)c1ccc(Cl)cc1,InChI=1S/C6H4ClNO2/c7-5-1-3-6(4-2-5)8(9)10/h1-4H,CZGCEKJOLUNIFY-UHFFFAOYSA-N,?,,"HANSCH,C ET AL. (1995)",2.39
100901,100-02-7,100-02-7,[H]OC1=C([H])C([H])=C([N+](=O)[O-])C([H])=C1[H],4-NITROPHENOL,4-Nitrophenol,4-nitrophenol,5547,DTXSID0021834,[O-][N+](=O)c1ccc(O)cc1,"InChI=1S/C6H5NO3/c8-6-3-1-5(2-4-6)7(9)10/h1-4,8H",BTJIUGUIPKRLHP-UHFFFAOYSA-N,?,,"HANSCH,C ET AL. (1995)",1.91
100902,100-06-1,100-06-1,[H]C1=C([H])C(C(=O)C([H])([H])[H])=C([H])C([H])=C1OC([H])([H])[H],P-METHOXYACETOPHENONE,4'-Methoxyacetophenone,1-(4-methoxyphenyl)ethanone,5548,DTXSID2044347,CC(=O)c1ccc(cc1)OC,"InChI=1S/C9H10O2/c1-7(10)8-3-5-9(11-2)6-4-8/h3-6H,1-2H3",NTPLXRHDUXRPNE-UHFFFAOYSA-N,?,,"HANSCH,C ET AL. (1995)",1.74
100903,100-09-4,100-09-4,[H]OC(=O)C1=C([H])C([H])=C(OC([H])([H])[H])C([H])=C1[H],P-METHOXYBENZOIC ACID,"Benzoic acid, 4-methoxy-",4-Methoxybenzoic acid,5549,DTXSID4059205,COc1ccc(cc1)C(O)=O,"InChI=1S/C8H8O3/c1-11-7-4-2-6(3-5-7)8(9)10/h2-5H,1H3,(H,9,10)",ZEYHEAKUIGZSGI-UHFFFAOYSA-N,?,,"HANSCH,C ET AL. (1995)",1.96
100905,100-12-9,100-12-9,[H]C1=C([H])C(C([H])([H])C([H])([H])[H])=C([H])C([H])=C1[N+](=O)[O-],4-ETHYLNITROBENZENE,"Benzene, 1-ethyl-4-nitro-",1-Ethyl-4-nitrobenzene,5551,DTXSID9059206,CCc1ccc(cc1)[N+]([O-])=O,"InChI=1S/C8H9NO2/c1-2-7-3-5-8(6-4-7)9(10)11/h3-6H,2H2,1H3",RESTWAHJFMZUIZ-UHFFFAOYSA-N,?,,"HANSCH,C ET AL. (1995)",3.03
100906,100-15-2,100-15-2,[H]C1=C([H])C([N+](=O)[O-])=C([H])C([H])=C1N([H])C([H])([H])[H],P-NITRO-N-METHYLANILINE,N-Methyl-4-nitroaniline,N-methyl-4-nitroaniline,5552,DTXSID7025635,CNc1ccc(cc1)[N+]([O-])=O,"InChI=1S/C7H8N2O2/c1-8-6-2-4-7(5-3-6)9(10)11/h2-5,8H,1H3",XIFJZJPMHNUGRA-UHFFFAOYSA-N,?,,"HANSCH,C ET AL. (1995)",2.04
100907,100-16-3,100-16-3,[H]C1=C([H])C([N+](=O)[O-])=C([H])C([H])=C1N([H])N([H])[H],"HYDRAZINE, (4-NITROPHENYL)-","Hydrazine, (4-nitrophenyl)-",(4-Nitrophenyl)hydrazine,5553,DTXSID4059207,NNc1ccc(cc1)[N+]([O-])=O,"InChI=1S/C6H7N3O2/c7-8-5-1-3-6(4-2-5)9(10)11/h1-4,8H,7H2",KMVPXBDOWDXXEN-UHFFFAOYSA-N,?,,"HANSCH,C ET AL. (1995)",1.41
100909,100-19-6,100-19-6,[H]C1=C([H])C([N+](=O)[O-])=C([H])C([H])=C1C(=O)C([H])([H])[H],P-NITROACETOPHENONE,4-Nitroacetophenone,1-(4-nitrophenyl)ethanone,5555,DTXSID1025724,CC(=O)c1ccc(cc1)[N+]([O-])=O,"InChI=1S/C8H7NO3/c1-6(10)7-2-4-8(5-3-7)9(11)12/h2-5H,1H3",YQYGPGKTNQNXMH-UHFFFAOYSA-N,?,,"HANSCH,C ET AL. (1995)",1.53
100910,100-21-0,100-21-0,[H]OC(=O)C1=C([H])C([H])=C(C(=O)O[H])C([H])=C1[H],TEREPHTHALIC ACID,Terephthalic acid,"benzene-1,4-dicarboxylic acid",5556,DTXSID6026080,OC(=O)c1ccc(cc1)C(O)=O,"InChI=1S/C8H6O4/c9-7(10)5-1-2-6(4-3-5)8(11)12/h1-4H,(H,9,10)(H,11,12)",KKEYFWRCBNTPAC-UHFFFAOYSA-N,?,,"HANSCH,C ET AL. (1995)",2.0
100911,100-23-2,100-23-2,[H]C1=C([H])C([N+](=O)[O-])=C([H])C([H])=C1N(C([H])([H])[H])C([H])([H])[H],"P-NITRO-N,N-DIMETHYLANILINE","Benzenamine, N,N-dimethyl-4-nitro-","N,N-Dimethyl-4-nitroaniline",5557,DTXSID4059209,CN(C)c1ccc(cc1)[N+]([O-])=O,"InChI=1S/C8H10N2O2/c1-9(2)7-3-5-8(6-4-7)10(11)12/h3-6H,1-2H3",QJAIOCKFIORVFU-UHFFFAOYSA-N,?,,"HANSCH,C ET AL. (1995)",2.27
100913,100-27-6,100-27-6,[H]OC([H])([H])C([H])([H])C1=C([H])C([H])=C([N+](=O)[O-])C([H])=C1[H],2-(P-NITROPHENYL)ETHANOL,2-(4-Nitrophenyl)ethanol,2-(4-nitrophenyl)ethanol,5559,DTXSID7025764,[O-][N+](=O)c1ccc(CCO)cc1,"InChI=1S/C8H9NO3/c10-6-5-7-1-3-8(4-2-7)9(11)12/h1-4,10H,5-6H2",IKMXRUOZUUKSON-UHFFFAOYSA-N,?,,"HANSCH,C ET AL. (1995)",1.12
100914,100-29-8,100-29-8,[H]C1=C([H])C([N+](=O)[O-])=C([H])C([H])=C1OC([H])([H])C([H])([H])[H],P-NITROPHENETOLE,1-Ethoxy-4-nitrobenzene,1-ethoxy-4-nitrobenzene,5560,DTXSID7026655,CCOc1ccc(cc1)[N+]([O-])=O,"InChI=1S/C8H9NO3/c1-2-12-8-5-3-7(4-6-8)9(10)11/h3-6H,2H2,1H3",NWPKEYHUZKMWKJ-UHFFFAOYSA-N,?,,"HANSCH,C ET AL. (1995)",2.53
100915,100-36-7,100-36-7,[H]N([H])C([H])([H])C([H])([H])N(C([H])([H])C([H])([H])[H])C([H])([H])C([H])([H])[H],"1,2-ETHANEDIAMINE, N,N-DIETHYL-",2-Aminoethyldiethylamine,"N,N-diethylethane-1,2-diamine",5561,DTXSID7057606,CCN(CCN)CC,"InChI=1S/C6H16N2/c1-3-8(4-2)6-5-7/h3-7H2,1-2H3",UDGSVBYJWHOHNN-UHFFFAOYSA-N,?,,"HANSCH,C ET AL. (1995)",0.21
100917,100-40-3,100-40-3,[H]C([H])=C([H])C1([H])C([H])([H])C([H])=C([H])C([H])([H])C1([H])[H],4-VINYLCYCLOHEXENE,4-Vinylcyclohexene,4-ethenylcyclohexene,5563,DTXSID3021437,C=CC1CC=CCC1,"InChI=1S/C8H12/c1-2-8-6-4-3-5-7-8/h2-4,8H,1,5-7H2",BBDKZWKEPDTENS-UHFFFAOYSA-N,?,,CHEMICALS INSPECTION AND TESTING INSTITU (1992),3.93
100918,100-41-4,100-41-4,[H]C1=C([H])C([H])=C(C([H])([H])C([H])([H])[H])C([H])=C1[H],ETHYLBENZENE,Ethylbenzene,C8H10,5564,DTXSID3020596,CCc1ccccc1,"InChI=1S/C8H10/c1-2-8-6-4-3-5-7-8/h3-7H,2H2,1H3",YNQLUTRBYVCPMQ-UHFFFAOYSA-N,?,,"HANSCH,C ET AL. (1995)",3.15
100919,100-42-5,100-42-5,[H]C([H])=C([H])C1=C([H])C([H])=C([H])C([H])=C1[H],STYRENE,Styrene,ethenylbenzene,5565,DTXSID2021284,C=Cc1ccccc1,"InChI=1S/C8H8/c1-2-8-6-4-3-5-7-8/h2-7H,1H2",PPBRXRYQALVLMV-UHFFFAOYSA-N,?,,"HANSCH,C ET AL. (1995)",2.95
100921,100-46-9,100-46-9,[H]C1=C([H])C([H])=C(C([H])([H])N([H])[H])C([H])=C1[H],BENZYLAMINE,Benzylamine,1-phenylmethanamine,5567,DTXSID5021839,NCc1ccccc1,"InChI=1S/C7H9N/c8-6-7-4-2-1-3-5-7/h1-5H,6,8H2",WGQKYBSKWIADBV-UHFFFAOYSA-N,?,,"HANSCH,C ET AL. (1995)",1.09
100922,100-47-0,100-47-0,[H]C1=C([H])C([H])=C(C#N)C([H])=C1[H],BENZONITRILE,Benzonitrile,benzonitrile,5568,DTXSID7021491,N#Cc1ccccc1,InChI=1S/C7H5N/c8-6-7-4-2-1-3-5-7/h1-5H,JFDZBHWFFUWGJE-UHFFFAOYSA-N,?,,"HANSCH,C ET AL. (1995)",1.56
100923,100-48-1,100-48-1,[H]C1=NC([H])=C([H])C(C#N)=C1[H],4-CYANOPYRIDINE,4-Pyridinecarbonitrile,pyridine-4-carbonitrile,5569,DTXSID9041528,N#Cc1cc[n]cc1,InChI=1S/C6H4N2/c7-5-6-1-3-8-4-2-6/h1-4H,GPHQHTOMRSGBNZ-UHFFFAOYSA-N,?,,"HANSCH,C ET AL. (1995)",0.46
100925,100-52-7,100-52-7,[H]C(=O)C1=C([H])C([H])=C([H])C([H])=C1[H],BENZALDEHYDE,Benzaldehyde,benzaldehyde,5571,DTXSID8039241,O=Cc1ccccc1,InChI=1S/C7H6O/c8-6-7-4-2-1-3-5-7/h1-6H,HUMNYLRZRPPJDN-UHFFFAOYSA-N,?,,"HANSCH,C ET AL. (1995)",1.48
100926,100-54-9,100-54-9,[H]C1=NC([H])=C([H])C([H])=C1C#N,3-CYANOPYRIDINE,3-Pyridinecarbonitrile,pyridine-3-carbonitrile,5572,DTXSID1026665,N#Cc1c[n]ccc1,"InChI=1S/C6H4N2/c7-4-6-2-1-3-8-5-6/h1-3,5H",GZPHSAQLYPIAIN-UHFFFAOYSA-N,?,,SANGSTER (1994),0.36
100927,100-55-0,100-55-0,[H]OC([H])([H])C1=C([H])N=C([H])C([H])=C1[H],3-PYRIDINEMETHANOL,Nicotinyl alcohol,pyridin-3-ylmethanol,5573,DTXSID6023367,OCc1c[n]ccc1,"InChI=1S/C6H7NO/c8-5-6-2-1-3-7-4-6/h1-4,8H,5H2",MVQVNTPHUGQQHK-UHFFFAOYSA-N,?,,"HANSCH,C ET AL. (1995)",-0.02
100930,100-63-0,100-63-0,[H]C1=C([H])C([H])=C(N([H])N([H])[H])C([H])=C1[H],PHENYL HYDRAZINE,Phenylhydrazine,phenylhydrazine,5575,DTXSID8021147,NNc1ccccc1,"InChI=1S/C6H8N2/c7-8-6-4-2-1-3-5-6/h1-5,8H,7H2",HKOOXMFOFWEVGF-UHFFFAOYSA-N,?,,"HANSCH,C ET AL. (1995)",1.25
100931,100-64-1,100-64-1,[H]C1([H])C([H])([H])C([H])([H])C([H])(N=O)C([H])([H])C1([H])[H],CYCLOHEXANONE OXIME,Cyclohexanone oxime,N-hydroxycyclohexanimine,5576,DTXSID4021842,O=NC1CCCCC1,"InChI=1S/C6H11NO/c8-7-6-4-2-1-3-5-6/h6H,1-5H2",AFLQDEOAJRGCOW-UHFFFAOYSA-N,?,,TSCATS,0.84
100932,100-65-2,100-65-2,[H]ON([H])C1=C([H])C([H])=C([H])C([H])=C1[H],PHENYLHYDROXYLAMINE,N-Phenylhydroxylamine,N-hydroxyaniline,5577,DTXSID3025889,ONc1ccccc1,"InChI=1S/C6H7NO/c8-7-6-4-2-1-3-5-6/h1-5,7-8H",CKRZKMFTZCFYGB-UHFFFAOYSA-N,?,,"HANSCH,C ET AL. (1995)",0.79
100934,100-68-5,100-68-5,[H]C1=C([H])C([H])=C(SC([H])([H])[H])C([H])=C1[H],THIOANISOLE,"Benzene, (methylthio)-",methylsulfanylbenzene,5579,DTXSID8059217,CSc1ccccc1,"InChI=1S/C7H8S/c1-8-7-5-3-2-4-6-7/h2-6H,1H3",HNKJADCVZUBCPG-UHFFFAOYSA-N,?,,"HANSCH,C ET AL. (1995)",2.74
100935,100-69-6,100-69-6,[H]C([H])=C([H])C1=NC([H])=C([H])C([H])=C1[H],2-VINYLPYRIDINE,2-Vinylpyridine,2-ethenylpyridine,5580,DTXSID1026667,C=Cc1cccc[n]1,"InChI=1S/C7H7N/c1-2-7-5-3-4-6-8-7/h2-6H,1H2",KGIGUEBEKRSTEW-UHFFFAOYSA-N,?,,CHEMICALS INSPECTION AND TESTING INSTITU (1992),1.54
100936,100-70-9,100-70-9,[H]C1=NC(C#N)=C([H])C([H])=C1[H],2-CYANOPYRIDINE,2-Pyridinecarbonitrile,pyridine-2-carbonitrile,5581,DTXSID9021843,N#Cc1cccc[n]1,InChI=1S/C6H4N2/c7-5-6-3-1-2-4-8-6/h1-4H,FFNVQNRYTPFDDP-UHFFFAOYSA-N,?,,SANGSTER (1994),0.45
100938,100-75-4,100-75-4,[H]C1([H])N(N=O)C([H])([H])C([H])([H])C([H])([H])C1([H])[H],N-NITROSOPIPERIDINE,N-Nitrosopiperidine,1-nitrosopiperidine,5583,DTXSID8021060,O=NN1CCCCC1,InChI=1S/C5H10N2O/c8-6-7-4-2-1-3-5-7/h1-5H2,UWSDONTXWQOZFN-UHFFFAOYSA-N,?,,"HANSCH,C ET AL. (1995)",0.36
100939,100-76-5,100-76-5,[H]C1([H])N2C([H])([H])C([H])([H])C([H])(C1([H])[H])C([H])([H])C2([H])[H],QUINUCLIDINE,Quinuclidine,quinuclidine,5584,DTXSID2057607,C1CN2CCC1CC2,"InChI=1S/C7H13N/c1-4-8-5-2-7(1)3-6-8/h7H,1-6H2",SBYHFKPVCBCYGV-UHFFFAOYSA-N,?,,"HANSCH,C ET AL. (1995)",1.38
100940,100-83-4,100-83-4,[H]OC1=C([H])C(C([H])=O)=C([H])C([H])=C1[H],3-HYDROXYBENZALDEHYDE,"Benzaldehyde, 3-hydroxy-",3-hydroxybenzaldehyde,5585,DTXSID7059220,Oc1cc(C=O)ccc1,"InChI=1S/C7H6O2/c8-5-6-2-1-3-7(9)4-6/h1-5,9H",IAVREABSGIHHMO-UHFFFAOYSA-N,?,,"JIN,LJ ET AL. (1998)",1.29
100942,101-05-3,101-05-3,[H]C1=C([H])C(Cl)=C(N([H])C2=NC(Cl)=NC(Cl)=N2)C([H])=C1[H],ANILAZINE,Anilazine,"4,6-dichloro-N-(2-chlorophenyl)-1,3,5-triazin-2-amine",5587,DTXSID9020089,Clc1ccccc1Nc1[n]c(Cl)[n]c(Cl)[n]1,"InChI=1S/C9H5Cl3N4/c10-5-3-1-2-4-6(5)13-9-15-7(11)14-8(12)16-9/h1-4H,(H,13,14,15,16)",IMHBYKMAHXWHRP-UHFFFAOYSA-N,?,,"SAITO,H ET AL. (1993)",3.88
100943,101-14-4,101-14-4,[H]C1=C(Cl)C(N([H])[H])=C([H])C([H])=C1C([H])([H])C1=C([H])C([H])=C(N([H])[H])C(Cl)=C1[H],"4,4'-METHYLENEBIS(2-CHLOROANILINE)","4,4'-Methylenebis(2-chloroaniline)","4,4'-methanediylbis(2-chloroaniline)",5588,DTXSID5020865,Nc1ccc(Cc2cc(Cl)c(N)cc2)cc1Cl,"InChI=1S/C13H12Cl2N2/c14-10-6-8(1-3-12(10)16)5-9-2-4-13(17)11(15)7-9/h1-4,6-7H,5,16-17H2",IBOFVQJTBBUKMU-UHFFFAOYSA-N,?,,CHEMICALS INSPECTION AND TESTING INSTITU (1992),3.91
100944,101-21-3,101-21-3,[H]C1=C([H])C(N([H])C(=O)OC([H])(C([H])([H])[H])C([H])([H])[H])=C([H])C(Cl)=C1[H],CHLORPROPHAM,Chlorpropham,propan-2-yl (3-chlorophenyl)carbamate,5589,DTXSID7020764,CC(C)OC(=O)Nc1cccc(Cl)c1,"InChI=1S/C10H12ClNO2/c1-7(2)14-10(13)12-9-5-3-4-8(11)6-9/h3-7H,1-2H3,(H,12,13)",CWJSHJJYOPWUGX-UHFFFAOYSA-N,?,,"HANSCH,C ET AL. (1995)",3.51
100946,101-42-8,101-42-8,[H]C1=C([H])C([H])=C(N([H])C(=O)N(C([H])([H])[H])C([H])([H])[H])C([H])=C1[H],FENURON,Fenuron,"1,1-dimethyl-3-phenylurea",5591,DTXSID7037551,CN(C)C(=O)Nc1ccccc1,"InChI=1S/C9H12N2O/c1-11(2)9(12)10-8-6-4-3-5-7-8/h3-7H,1-2H3,(H,10,12)",XXOYNJXVWVNOOJ-UHFFFAOYSA-N,?,,"HANSCH,C ET AL. (1995)",0.98
100948,101-53-1,101-53-1,[H]OC1=C([H])C([H])=C(C([H])([H])C2=C([H])C([H])=C([H])C([H])=C2[H])C([H])=C1[H],4-HYDROXYDIPHENYLMETHANE,4-Benzylphenol,4-benzylphenol,5592,DTXSID9047962,Oc1ccc(Cc2ccccc2)cc1,"InChI=1S/C13H12O/c14-13-8-6-12(7-9-13)10-11-4-2-1-3-5-11/h1-9,14H,10H2",HJSPWKGEPDZNLK-UHFFFAOYSA-N,?,,CHEMICALS INSPECTION AND TESTING INSTITU (1992),3.47