ChemID,source_casrn,CAS,SMILES,NAME,preferred_name,iupac,MPID,dsstox_substance_id,Canonical_QSARr,InChI_Code_QSARr,InChI Key_QSARr,Salt_Solvent,Salt_Solvent_ID,Kow Reference,LogP
102011,487-54-7,487-54-7,[H]OC(=O)C([H])([H])N([H])C(=O)C1=C([H])C([H])=C([H])C([H])=C1O[H],"GLYCINE, N-(2-HYDROXYBENZOYL)-",Salicylurate,2-[(2-hydroxybenzoyl)amino]acetic acid,6622,DTXSID70197592,OC(=O)CNC(=O)c1ccccc1O,"InChI=1S/C9H9NO4/c11-7-4-2-1-3-6(7)9(14)10-5-8(12)13/h1-4,11H,5H2,(H,10,14)(H,12,13)",ONJSZLXSECQROL-UHFFFAOYSA-N,?,,"HANSCH,C ET AL. (1995)",0.95
102013,488-23-3,488-23-3,[H]C1=C([H])C(C([H])([H])[H])=C(C([H])([H])[H])C(C([H])([H])[H])=C1C([H])([H])[H],"1,2,3,4-TETRAMETHYLBENZENE","1,2,3,4-Tetramethylbenzene","1,2,3,4-TETRAMETHYLBENZENE",6624,DTXSID4060072,Cc1ccc(C)c(C)c1C,"InChI=1S/C10H14/c1-7-5-6-8(2)10(4)9(7)3/h5-6H,1-4H3",UOHMMEJUHBCKEE-UHFFFAOYSA-N,?,,SANGSTER (1994),4.0
102014,488-41-5|10318-26-0,488-41-5|NOCAS_48158,[H]OC([H])(C([H])([H])Br)C([H])(O[H])C([H])(O[H])C([H])(O[H])C([H])([H])Br,"1,6-DIBR-1,6-DIDEOXYMANNITOL, MITOLACTOL",Dibromomannitol,"1,6-dibromo-1,6-dideoxy-D-mannitol",6625|9678,DTXSID7022918|DTXSID3048158,OC(CBr)C(O)C(O)C(O)CBr,"InChI=1S/C6H12Br2O4/c7-1-3(9)5(11)6(12)4(10)2-8/h3-6,9-12H,1-2H2",VFKZTMPDYBFSTM-UHFFFAOYSA-N,?,,"HANSCH,C ET AL. (1995)",-0.24
102015,488-93-7,488-93-7,[H]OC(=O)C1=C([H])OC([H])=C1[H],FURAN-3-CARBOXYLIC ACID,3-Furoic acid,furan-3-carboxylic acid,6626,DTXSID50197611,OC(=O)c1ccoc1,"InChI=1S/C5H4O3/c6-5(7)4-1-2-8-3-4/h1-3H,(H,6,7)",IHCCAYCGZOLTEU-UHFFFAOYSA-N,?,,"HANSCH,C ET AL. (1995)",1.03
102017,490-91-5,490-91-5,[H]C1=C(C([H])([H])[H])C(=O)C([H])=C(C([H])(C([H])([H])[H])C([H])([H])[H])C1=O,"2,5-CYCLOHEXADIENE-1,4-DIONE, 2-METHYL-5-(1-METH","2,5-Cyclohexadiene-1,4-dione, 2-methyl-5-(1-methylethyl)-","2-methyl-5-propan-2-ylcyclohexa-2,5-diene-1,4-dione",6628,DTXSID9060079,CC1=CC(=O)C(=CC1=O)C(C)C,"InChI=1S/C10H12O2/c1-6(2)8-5-9(11)7(3)4-10(8)12/h4-6H,1-3H3",KEQHJBNSCLWCAE-UHFFFAOYSA-N,?,,SANGSTER (1993),2.2
102018,491-35-0,491-35-0,[H]C1=NC2=C([H])C([H])=C([H])C([H])=C2C(C([H])([H])[H])=C1[H],4-METHYLQUINOLINE,Lepidine,4-methylquinoline,6629,DTXSID7047067,Cc1cc[n]c2ccccc21,"InChI=1S/C10H9N/c1-8-6-7-11-10-5-3-2-4-9(8)10/h2-7H,1H3",MUDSDYNRBDKLGK-UHFFFAOYSA-N,?,,"HANSCH,C ET AL. (1995)",2.61
102019,491-36-1|17227-47-3,491-36-1,[H]C1=NC2=C([H])C([H])=C([H])C([H])=C2C(=O)N1[H],"QUINAZOLIDIN-4-ONE, 4-QUINAZOLINOL",4-Hydroxyquinazoline,quinazolin-4(3H)-one,6630|10141,DTXSID8049412,O=C1NC=Nc2ccccc21,"InChI=1S/C8H6N2O/c11-8-6-3-1-2-4-7(6)9-5-10-8/h1-5H,(H,9,10,11)",QMNUDYFKZYBWQX-UHFFFAOYSA-N,?,,"HANSCH,C ET AL. (1995)",0.77
102021,491-70-3,491-70-3,[H]OC1=C([H])C(O[H])=C2C(=O)C([H])=C(C3=C([H])C([H])=C(O[H])C(O[H])=C3[H])OC2=C1[H],LUTEOLIN,Luteolin,"2-(3,4-dihydroxyphenyl)-5,7-dihydroxychromen-4-one",6632,DTXSID4074988,Oc1ccc(cc1O)C1=CC(=O)c2c(cc(O)cc2O)O1,"InChI=1S/C15H10O6/c16-8-4-11(19)15-12(20)6-13(21-14(15)5-8)7-1-2-9(17)10(18)3-7/h1-6,16-19H",IQPNAANSBPBGFQ-UHFFFAOYSA-N,?,,"PERRISSOUD,D & TESTA,B (1986)",2.53
102022,491-78-1,491-78-1,[H]OC1=C2C(=O)C([H])=C(C3=C([H])C([H])=C([H])C([H])=C3[H])OC2=C([H])C([H])=C1[H],5-HYDROXYFLAVONE,5-Hydroxyflavone,5-hydroxy-2-phenylchromen-4-one,6633,DTXSID90197690,Oc1cccc2OC(=CC(=O)c21)c1ccccc1,"InChI=1S/C15H10O3/c16-11-7-4-8-13-15(11)12(17)9-14(18-13)10-5-2-1-3-6-10/h1-9,16H",IYBLVRRCNVHZQJ-UHFFFAOYSA-N,?,,"PERRISSOUD,D & TESTA,B (1986)",4.3
102023,492-14-8,492-14-8,[H]OC1=C([H])C([H])=C2C(=O)C([H])([H])C([H])(C3=C([H])C([H])=C(O[H])C(O[H])=C3[H])OC2=C1[H],"7,3',4'-Trihydroxyflavanone",Butin,"(2S)-2-(3,4-dihydroxyphenyl)-7-hydroxychroman-4-one",6634,DTXSID60197708,Oc1cc2OC(CC(=O)c2cc1)c1cc(O)c(O)cc1,"InChI=1S/C15H12O5/c16-9-2-3-10-12(18)7-14(20-15(10)6-9)8-1-4-11(17)13(19)5-8/h1-6,14,16-17,19H,7H2",MJBPUQUGJNAPAZ-UHFFFAOYSA-N,?,,"PERRISSOUD,D & TESTA,B (1986)",1.94
102025,492-94-4,492-94-4,[H]C1=C([H])C([H])=C(C(=O)C(=O)C2=C([H])C([H])=C([H])O2)O1,"FURAN, 2-COCO-FURYL","Ethanedione,di-2-furanyl-","1,2-di(furan-2-yl)ethane-1,2-dione",6636,DTXSID3049413,O=C(c1ccco1)C(=O)c1ccco1,InChI=1S/C10H6O4/c11-9(7-3-1-5-13-7)10(12)8-4-2-6-14-8/h1-6H,SXPUVBFQXJHYNS-UHFFFAOYSA-N,?,,"HANSCH,C ET AL. (1995)",1.24
102026,492-97-7,492-97-7,[H]C1=C([H])C([H])=C(C2=C([H])C([H])=C([H])S2)S1,"2,2'-BITHIOPHENE","2,2'-Bithiophene",2-thiophen-2-ylthiophene,6637,DTXSID8060084,c1cc[s]c1-c1ccc[s]1,InChI=1S/C8H6S2/c1-3-7(9-5-1)8-4-2-6-10-8/h1-6H,OHZAHWOAMVVGEL-UHFFFAOYSA-N,?,,"DE VOOGT,P ET AL. (1990)",3.75
102027,493-09-4,493-09-4,[H]C1=C([H])C2=C(OC([H])([H])C([H])([H])O2)C([H])=C1[H],"1,4-BENZODIOXAN","1,4-Benzodioxin, 2,3-dihydro-","2,3-dihydro-1,4-benzodioxine",6638,DTXSID8075419,C1COc2ccccc2O1,"InChI=1S/C8H8O2/c1-2-4-8-7(3-1)9-5-6-10-8/h1-4H,5-6H2",BNBQRQQYDMDJAH-UHFFFAOYSA-N,?,,"HANSCH,C ET AL. (1995)",2.01
102029,494-97-3,494-97-3,[H]C1=NC([H])=C(C2([H])N([H])C([H])([H])C([H])([H])C2([H])[H])C([H])=C1[H],NORNICOTINE,"Pyridine, 3-(2S)-2-pyrrolidinyl-",3-[(2S)-pyrrolidin-2-yl]pyridine,6640,DTXSID7075420,C1CCC(N1)c1c[n]ccc1,"InChI=1S/C9H12N2/c1-3-8(7-10-5-1)9-4-2-6-11-9/h1,3,5,7,9,11H,2,4,6H2",MYKUKUCHPMASKF-UHFFFAOYSA-N,?,,"HANSCH,C ET AL. (1995)",0.17
102030,495-18-1,495-18-1,[H]ON([H])C(=O)C1=C([H])C([H])=C([H])C([H])=C1[H],BENZOHYDROXAMIC ACID,N-Hydroxybenzamide,N-hydroxybenzamide,6641,DTXSID7025421,ONC(=O)c1ccccc1,"InChI=1S/C7H7NO2/c9-7(8-10)6-4-2-1-3-5-6/h1-5,10H,(H,8,9)",VDEUYMSGMPQMIK-UHFFFAOYSA-N,?,,"HANSCH,C ET AL. (1995)",0.26
102031,495-40-9,495-40-9,[H]C1=C([H])C([H])=C(C(=O)C([H])([H])C([H])([H])C([H])([H])[H])C([H])=C1[H],"1-BUTANONE, 1-PHENYL-",Butyrophenone,1-phenylbutan-1-one,6642,DTXSID3047059,CCCC(=O)c1ccccc1,"InChI=1S/C10H12O/c1-2-6-10(11)9-7-4-3-5-8-9/h3-5,7-8H,2,6H2,1H3",FFSAXUULYPJSKH-UHFFFAOYSA-N,?,,SANGSTER (1993),2.77
102033,495-76-1,495-76-1,[H]OC([H])([H])C1=C([H])C2=C(OC([H])([H])O2)C([H])=C1[H],"1,3-BENZODIOXOLE-5-METHANOL","1,3-Benzodioxole-5-methanol","1,3-benzodioxol-5-ylmethanol",6644,DTXSID3060089,OCc1cc2OCOc2cc1,"InChI=1S/C8H8O3/c9-4-6-1-2-7-8(3-6)11-5-10-7/h1-3,9H,4-5H2",BHUIUXNAPJIDOG-UHFFFAOYSA-N,?,,"HANSCH,C ET AL. (1995)",1.05
102034,496-11-7,496-11-7,[H]C1=C([H])C2=C(C([H])=C1[H])C([H])([H])C([H])([H])C2([H])[H],INDANE,Indan,indane,6645,DTXSID4052132,C1CCc2ccccc21,"InChI=1S/C9H10/c1-2-5-9-7-3-6-8(9)4-1/h1-2,4-5H,3,6-7H2",PQNFLJBBNBOBRQ-UHFFFAOYSA-N,?,,"HANSCH,C ET AL. (1995)",3.18
102035,496-14-0,496-14-0,[H]C1=C([H])C([H])=C2C(=C1[H])C([H])([H])OC2([H])[H],PHTHALAN,"1,3-Dihydroisobenzofuran","1,3-dihydro-2-benzofuran",6646,DTXSID60197920,C1OCc2ccccc21,"InChI=1S/C8H8O/c1-2-4-8-6-9-5-7(8)3-1/h1-4H,5-6H2",SFLGSKRGOWRGBR-UHFFFAOYSA-N,?,,"HANSCH,C ET AL. (1995)",1.76
102037,496-41-3,496-41-3,[H]OC(=O)C1=C([H])C2=C([H])C([H])=C([H])C([H])=C2O1,2-BENZOFURANCARBOXYLIC ACID,2-Benzofurancarboxylic acid,1-benzofuran-2-carboxylic acid,6648,DTXSID2060090,OC(=O)c1cc2ccccc2o1,"InChI=1S/C9H6O3/c10-9(11)8-5-6-3-1-2-4-7(6)12-8/h1-5H,(H,10,11)",OFFSPAZVIVZPHU-UHFFFAOYSA-N,?,,"HANSCH,C ET AL. (1995)",2.41
102038,496-63-9,496-63-9,[H]OC1=C([H])OC([H])=C([H])C1=O,"4H-Pyran-4-one, 3-hydroxy-","4H-Pyran-4-one, 3-hydroxy-",3-hydroxypyran-4-one,6649,DTXSID7060091,OC1=COC=CC1=O,"InChI=1S/C5H4O3/c6-4-1-2-8-3-5(4)7/h1-3,7H",VEYIMQVTPXPUHA-UHFFFAOYSA-N,?,,"ELLIS,BL ET AL. (1996)",-0.92
102039,496-67-3,496-67-3,[H]N([H])C(=O)N([H])C(=O)C([H])(Br)C([H])(C([H])([H])[H])C([H])([H])[H],A-BROMO-I-VALERYLUREA,Bromisovalum,2-bromo-N-carbamoyl-3-methylbutanamide,6650,DTXSID2040656,CC(C)C(Br)C(=O)NC(N)=O,"InChI=1S/C6H11BrN2O2/c1-3(2)4(7)5(10)9-6(8)11/h3-4H,1-2H3,(H3,8,9,10,11)",CMCCHHWTTBEZNM-UHFFFAOYSA-N,?,,"HANSCH,C ET AL. (1995)",1.14
102041,497-23-4,497-23-4,[H]C1=C([H])C([H])([H])OC1=O,2(5H)-FURANONE,2(5H)-Furanone,5H-furan-2-one,6652,DTXSID7075422,O=C1C=CCO1,"InChI=1S/C4H4O2/c5-4-2-1-3-6-4/h1-2H,3H2",VIHAEDVKXSOUAT-UHFFFAOYSA-N,?,,"HANSCH,C ET AL. (1995)",-0.6
102042,497-36-9|497-37-0,497-37-0,[H]OC1([H])C([H])([H])C2([H])C([H])([H])C([H])([H])C1([H])C2([H])[H],"endo-Norborneol, exo-Norborneol",exo-Norborneol,"(1R,2R,4S)-bicyclo[2.2.1]heptan-2-ol",6653|6654,DTXSID7022041,OC1CC2CC1CC2,"InChI=1S/C7H12O/c8-7-4-5-1-2-6(7)3-5/h5-8H,1-4H2",ZQTYQMYDIHMKQB-UHFFFAOYSA-N,?,,"LODGE,KB (1999)",1.45
102044,497-76-7,497-76-7,[H]OC1=C([H])C([H])=C(OC2([H])OC([H])(C([H])([H])O[H])C([H])(O[H])C([H])(O[H])C2([H])O[H])C([H])=C1[H],ARBUTIN,Arbutin,4-hydroxyphenyl beta-D-glucopyranoside,6655,DTXSID7040152,Oc1ccc(cc1)OC1OC(CO)C(O)C(O)C1O,"InChI=1S/C12H16O7/c13-5-8-9(15)10(16)11(17)12(19-8)18-7-3-1-6(14)2-4-7/h1-4,8-17H,5H2",BJRNKVDFDLYUGJ-UHFFFAOYSA-N,?,,"HANSCH,C ET AL. (1995)",-1.35
102046,498-62-4,498-62-4,[H]C(=O)C1=C([H])SC([H])=C1[H],3-THIOPHENECARBOXALDEHYDE,3-Thiophenecarboxaldehyde,Thiophene-3-carbaldehyde,6657,DTXSID2060098,O=Cc1c[s]cc1,InChI=1S/C5H4OS/c6-3-5-1-2-7-4-5/h1-4H,RBIGKSZIQCTIJF-UHFFFAOYSA-N,?,,"HANSCH,C ET AL. (1995)",1.01
102047,498-66-8,498-66-8,[H]C1=C([H])C2([H])C([H])([H])C([H])([H])C1([H])C2([H])[H],BICYCLO[2.2.1]-2-HEPTENE,Norbornylene,bicyclo[2.2.1]hept-2-ene,6658,DTXSID2022042,C1C2CCC1C=C2,"InChI=1S/C7H10/c1-2-7-4-3-6(1)5-7/h1-2,6-7H,3-5H2",JFNLZVQOOSMTJK-UHFFFAOYSA-N,?,,"LODGE,KB (1999)",3.24
102048,498-94-2,498-94-2,[H]OC(=O)C1([H])C([H])([H])C([H])([H])N([H])C([H])([H])C1([H])[H],ISONIPECOTIC ACID,4-Piperidinecarboxylic acid,Piperidine-4-carboxylic acid,6659,DTXSID9060100,OC(=O)C1CCNCC1,"InChI=1S/C6H11NO2/c8-6(9)5-1-3-7-4-2-5/h5,7H,1-4H2,(H,8,9)",SRJOCJYGOFTFLH-UHFFFAOYSA-N,?,,"TSAI,RS ET AL. (1991)",-3.05
102050,499-75-2,499-75-2,[H]OC1=C(C([H])([H])[H])C([H])=C([H])C(C([H])(C([H])([H])[H])C([H])([H])[H])=C1[H],"Phenol, 2-methyl-5-(1-methylethyl)-",Isopropyl-o-cresol,2-methyl-5-(propan-2-yl)phenol,6661,DTXSID6042074,Cc1ccc(cc1O)C(C)C,"InChI=1S/C10H14O/c1-7(2)9-5-4-8(3)10(11)6-9/h4-7,11H,1-3H3",RECUKUPTGUEGMW-UHFFFAOYSA-N,?,,"GRIFFIN,S ET AL. (1999)",3.49
102051,500-22-1,500-22-1,[H]C(=O)C1=C([H])N=C([H])C([H])=C1[H],3-FORMYLPYRIDINE,3-Pyridinecarboxaldehyde,pyridine-3-carbaldehyde,6662,DTXSID2022044,O=Cc1c[n]ccc1,InChI=1S/C6H5NO/c8-5-6-2-1-3-7-4-6/h1-5H,QJZUKDFHGGYHMC-UHFFFAOYSA-N,?,,"HANSCH,C ET AL. (1995)",0.29
102052,500-28-7,500-28-7,[H]C1=C(Cl)C([N+](=O)[O-])=C([H])C([H])=C1OP(=S)(OC([H])([H])[H])OC([H])([H])[H],3-CHLORO-DIMETHYL PARATHION,Chlorthion,"O-(3-chloro-4-nitrophenyl) O,O-dimethyl phosphorothioate",6663,DTXSID9041784,COP(=S)(Oc1cc(Cl)c(cc1)[N+]([O-])=O)OC,"InChI=1S/C8H9ClNO5PS/c1-13-16(17,14-2)15-6-3-4-8(10(11)12)7(9)5-6/h3-5H,1-2H3",NZNRRXXETLSZRO-UHFFFAOYSA-N,?,,"HANSCH,C ET AL. (1995)",3.45
102054,500-99-2,500-99-2,[H]OC1=C([H])C(OC([H])([H])[H])=C([H])C(OC([H])([H])[H])=C1[H],"3,5-DIMETHOXYPHENOL","Phenol, 3,5-dimethoxy-","3,5-Dimethoxyphenol",6665,DTXSID7075426,COc1cc(O)cc(c1)OC,"InChI=1S/C8H10O3/c1-10-7-3-6(9)4-8(5-7)11-2/h3-5,9H,1-2H3",XQDNFAMOIPNVES-UHFFFAOYSA-N,?,,"HANSCH,C ET AL. (1995)",1.64
102055,501-30-4,501-30-4,[H]OC1=C([H])OC(C([H])([H])O[H])=C([H])C1=O,"4H-PYRAN-4-ONE, 5-HYDROXY-2-(HYDROXYMETHYL)-",Kojic acid,5-hydroxy-2-(hydroxymethyl)-4H-pyran-4-one,6666,DTXSID2040236,OC1=COC(CO)=CC1=O,"InChI=1S/C6H6O4/c7-2-4-1-5(8)6(9)3-10-4/h1,3,7,9H,2H2",BEJNERDRQOWKJM-UHFFFAOYSA-N,?,,"KONTOGHIORGHES,GJ (1988)",-0.64
102056,501-52-0,501-52-0,[H]OC(=O)C([H])([H])C([H])([H])C1=C([H])C([H])=C([H])C([H])=C1[H],BETA-PHENYLPROPIONIC ACID,Hydrocinnamic acid,3-phenylpropanoic acid,6667,DTXSID2047064,OC(=O)CCc1ccccc1,"InChI=1S/C9H10O2/c10-9(11)7-6-8-4-2-1-3-5-8/h1-5H,6-7H2,(H,10,11)",XMIIGOLPHOKFCH-UHFFFAOYSA-N,?,,"HANSCH,C ET AL. (1995)",1.84
102058,501-89-3,501-89-3,[H]OC(=O)C1=C([H])C([H])=C(C([H])([H])C(=O)O[H])C([H])=C1[H],"BENZENEACETIC ACID, 4-CARBOXY-",4-CARBOXYPHENYLACETIC ACID,C9H8O4,6669,DTXSID50277381,OC(=O)c1ccc(CC(O)=O)cc1,"InChI=1S/C9H8O4/c10-8(11)5-6-1-3-7(4-2-6)9(12)13/h1-4H,5H2,(H,10,11)(H,12,13)",DMEDOWYXHVUPMO-UHFFFAOYSA-N,?,,SANGSTER (1994),1.24
102059,501-97-3,501-97-3,[H]OC(=O)C([H])([H])C([H])([H])C1=C([H])C([H])=C(O[H])C([H])=C1[H],P-HYDROXY-B-PROPIONIC ACID,"Benzenepropanoic acid, 4-hydroxy-",3-(4-Hydroxyphenyl)propanoic acid,6670,DTXSID2075427,Oc1ccc(CCC(O)=O)cc1,"InChI=1S/C9H10O3/c10-8-4-1-7(2-5-8)3-6-9(11)12/h1-2,4-5,10H,3,6H2,(H,11,12)",NMHMNPHRMNGLLB-UHFFFAOYSA-N,?,,"HANSCH,C ET AL. (1995)",1.16
102060,501-98-4|7400-08-0,7400-08-0,[H]OC(=O)/C([H])=C(\[H])C1=C([H])C([H])=C(O[H])C([H])=C1[H],"2-PROPENOIC ACID, 3-(4-HYDROXYPHENYL)-, (E)-, CINNAMIC ACID, P-HYDROXY",p-Hydroxycinnamic acid,?,6671|9575,DTXSID6064660,Oc1ccc(C=CC(O)=O)cc1,"InChI=1S/C9H8O3/c10-8-4-1-7(2-5-8)3-6-9(11)12/h1-6,10H,(H,11,12)/b6-3+",NGSWKAQJJWESNS-ZZXKWVIFSA-N,?,,SANGSTER (1994),1.46
102062,503-09-3,503-09-3,[H]C([H])(F)C1([H])OC1([H])[H],EPIFLUOROHYDRIN,"1,2-Epoxy-3-fluoropropane",2-(fluoromethyl)oxirane,6673,DTXSID4025244,FCC1CO1,"InChI=1S/C3H5FO/c4-1-3-2-5-3/h3H,1-2H2",OIFAHDAXIUURLN-UHFFFAOYSA-N,?,,"HANSCH,C ET AL. (1995)",-0.16
102063,503-17-3,503-17-3,[H]C([H])([H])C#CC([H])([H])[H],2-BUTYNE,2-Butyne,but-2-yne,6674,DTXSID3060116,CC#CC,InChI=1S/C4H6/c1-3-4-2/h1-2H3,XNMQEEKYCVKGBD-UHFFFAOYSA-N,?,,"HANSCH,C ET AL. (1995)",1.46
102064,503-30-0,503-30-0,[H]C1([H])OC([H])([H])C1([H])[H],TRIMETHYLENEOXIDE,"1,3-Propylene oxide",oxetane,6675,DTXSID8025969,C1CCO1,InChI=1S/C3H6O/c1-2-4-3-1/h1-3H2,AHHWIHXENZJRFG-UHFFFAOYSA-N,?,,"HANSCH,C ET AL. (1995)",-0.14
102066,504-24-5,504-24-5,[H]C1=NC([H])=C([H])C(N([H])[H])=C1[H],4-AMINOPYRIDINE,4-Aminopyridine,pyridin-4-amine,6677,DTXSID0023870,Nc1cc[n]cc1,"InChI=1S/C5H6N2/c6-5-1-3-7-4-2-5/h1-4H,(H2,6,7)",NUKYPUAOHBNCPY-UHFFFAOYSA-N,?,,"HANSCH,C ET AL. (1995)",0.32
102067,504-29-0,504-29-0,[H]C1=C([H])C([H])=C([H])C(N([H])[H])=N1,2-AMINOPYRIDINE,2-Aminopyridine,pyridin-2-amine,6678,DTXSID0024505,Nc1cccc[n]1,"InChI=1S/C5H6N2/c6-5-3-1-2-4-7-5/h1-4H,(H2,6,7)",ICSNLGPSRYBMBD-UHFFFAOYSA-N,?,,"HANSCH,C ET AL. (1995)",0.48
102068,504-63-2,504-63-2,[H]OC([H])([H])C([H])([H])C([H])([H])O[H],"1,3-PROPANEDIOL","1,3-Propanediol","propane-1,3-diol",6679,DTXSID8041246,OCCCO,"InChI=1S/C3H8O2/c4-2-1-3-5/h4-5H,1-3H2",YPFDHNVEDLHUCE-UHFFFAOYSA-N,?,,"HANSCH,C ET AL. (1995)",-1.04
102070,505-29-3,505-29-3,[H]C1([H])SC([H])([H])C([H])([H])SC1([H])[H],"1,4-DITHIANE","1,4-Dithiane","1,4-dithiane",6681,DTXSID3024077,C1CSCCS1,InChI=1S/C4H8S2/c1-2-6-4-3-5-1/h1-4H2,LOZWAPSEEHRYPG-UHFFFAOYSA-N,?,,"MUNRO,NB ET AL. (1999)",0.77
102071,506-30-9,506-30-9,[H]OC(=O)C([H])([H])C([H])([H])C([H])([H])C([H])([H])C([H])([H])C([H])([H])C([H])([H])C([H])([H])C([H])([H])C([H])([H])C([H])([H])C([H])([H])C([H])([H])C([H])([H])C([H])([H])C([H])([H])C([H])([H])C([H])([H])C([H])([H])[H],EICOSANOIC ACID,Eicosanoic acid,Icosanoic acid,6682,DTXSID1060134,CCCCCCCCCCCCCCCCCCCC(O)=O,"InChI=1S/C20H40O2/c1-2-3-4-5-6-7-8-9-10-11-12-13-14-15-16-17-18-19-20(21)22/h2-19H2,1H3,(H,21,22)",VKOBVWXKNCXXDE-UHFFFAOYSA-N,?,,SANGSTER (1993),9.29
102072,506-32-1,506-32-1,[H]OC(=O)C([H])([H])C([H])([H])C([H])([H])/C([H])=C(\[H])C([H])([H])/C([H])=C(\[H])C([H])([H])/C([H])=C(\[H])C([H])([H])/C([H])=C(\[H])C([H])([H])C([H])([H])C([H])([H])C([H])([H])C([H])([H])[H],"5,8,11,14-EICOSATETRAENOIC ACID",Arachidonic acid,"(5Z,8Z,11Z,14Z)-icosa-5,8,11,14-tetraenoic acid",6683,DTXSID4040420,CCCCCC=CCC=CCC=CCC=CCCCC(O)=O,"InChI=1S/C20H32O2/c1-2-3-4-5-6-7-8-9-10-11-12-13-14-15-16-17-18-19-20(21)22/h6-7,9-10,12-13,15-16H,2-5,8,11,14,17-19H2,1H3,(H,21,22)/b7-6+,10-9+,13-12+,16-15+",YZXBAPSDXZZRGB-CGRWFSSPSA-N,?,,SANGSTER (1993),6.98
102076,508-52-1,NOCAS_871711,[H]OC([H])([H])C12C([H])(O[H])C([H])([H])C([H])(O[H])C([H])([H])C1(O[H])C([H])([H])C([H])([H])C1([H])C2([H])C([H])(O[H])C([H])([H])C2(C([H])([H])[H])C([H])(C3=C([H])C(=O)OC3([H])[H])C([H])([H])C([H])([H])C12O[H],OUABAGENIN,,,6686,DTXSID40871711,CC12CC(O)C3C(CCC4(O)CC(O)CC(O)C43CO)C1(O)CCC2C1COC(=O)C=1,"InChI=1S/C23H34O8/c1-20-9-16(26)19-15(23(20,30)5-3-14(20)12-6-18(28)31-10-12)2-4-21(29)8-13(25)7-17(27)22(19,21)11-24/h6,13-17,19,24-27,29-30H,2-5,7-11H2,1H3",BXSABLKMKAINIU-UHFFFAOYSA-N,?,,"HANSCH,C ET AL. (1995)",-0.02
102077,508-59-8,508-59-8,[H]OC12C([H])=C([H])C(=O)C1(C([H])([H])[H])C1([H])OC(=O)C(=C([H])[H])C1([H])C([H])([H])C([H])([H])C2([H])C([H])([H])[H],PARTHENIN,,,6687,DTXSID40877834,CC12C3OC(=O)C(=C)C3CCC(C)C1(O)C=CC2=O,"InChI=1S/C15H18O4/c1-8-4-5-10-9(2)13(17)19-12(10)14(3)11(16)6-7-15(8,14)18/h6-8,10,12,18H,2,4-5H2,1,3H3",LLQCRTZROWMVOL-UHFFFAOYSA-N,?,,"HANSCH,C ET AL. (1995)",0.77
102081,509-36-4,NOCAS_871719,[H]C1=C(OC([H])([H])[H])C([H])=C2C(=C1[H])N1C(=O)C([H])([H])C3([H])OC([H])([H])C([H])=C4C([H])([H])N5C([H])([H])C([H])([H])C26C5([H])C([H])([H])C4([H])C3([H])C16[H],2-METHOXYSTRYCHNINE,,,6690,DTXSID20871719,COc1cc2c(cc1)N1C3C4C(CC1=O)OCC=C1CN5CCC23C5CC14,"InChI=1S/C22H24N2O3/c1-26-13-2-3-16-15(8-13)22-5-6-23-11-12-4-7-27-17-10-19(25)24(16)21(22)20(17)14(12)9-18(22)23/h2-4,8,14,17-18,20-21H,5-7,9-11H2,1H3",ZTHVHELPCLGXHF-UHFFFAOYSA-N,?,,"HANSCH,C ET AL. (1995)",1.85
102082,509-74-0,509-74-0,[H]C1=C([H])C([H])=C(C(C2=C([H])C([H])=C([H])C([H])=C2[H])(C([H])([H])C([H])(N(C([H])([H])[H])C([H])([H])[H])C([H])([H])[H])C([H])(OC(=O)C([H])([H])[H])C([H])([H])C([H])([H])[H])C([H])=C1[H],ACETYLMETHADOL,Methadyl acetate,"6-(dimethylamino)-4,4-diphenylheptan-3-yl acetate",6691,DTXSID2023274,CC(=O)OC(CC)C(CC(C)N(C)C)(c1ccccc1)c1ccccc1,"InChI=1S/C23H31NO2/c1-6-22(26-19(3)25)23(17-18(2)24(4)5,20-13-9-7-10-14-20)21-15-11-8-12-16-21/h7-16,18,22H,6,17H2,1-5H3",XBMIVRRWGCYBTQ-UHFFFAOYSA-N,?,,"HANSCH,C ET AL. (1995)",4.27
102083,509-86-4,509-86-4,[H]C1=C(C2(C([H])([H])C([H])([H])[H])C(=O)N([H])C(=O)N([H])C2=O)C([H])([H])C([H])([H])C([H])([H])C([H])([H])C1([H])[H],HEPTABARBITAL,Heptabarbital,"5-(1-cycloheptenyl)-5-ethyl-1,3-diazinane-2,4,6-trione",6692,DTXSID10198927,CCC1(C2CCCCCC=2)C(=O)NC(=O)NC1=O,"InChI=1S/C13H18N2O3/c1-2-13(9-7-5-3-4-6-8-9)10(16)14-12(18)15-11(13)17/h7H,2-6,8H2,1H3,(H2,14,15,16,17,18)",PAZQYDJGLKSCSI-UHFFFAOYSA-N,?,,"HANSCH,C ET AL. (1995)",2.03
102085,510-15-6,510-15-6,[H]OC(C(=O)OC([H])([H])C([H])([H])[H])(C1=C([H])C([H])=C(Cl)C([H])=C1[H])C1=C([H])C([H])=C(Cl)C([H])=C1[H],CHLOROBENZILATE,Chlorobenzilate,ethyl bis(4-chlorophenyl)(hydroxy)acetate,6694,DTXSID9020299,CCOC(=O)C(O)(c1ccc(Cl)cc1)c1ccc(Cl)cc1,"InChI=1S/C16H14Cl2O3/c1-2-21-15(19)16(20,11-3-7-13(17)8-4-11)12-5-9-14(18)10-6-12/h3-10,20H,2H2,1H3",RAPBNVDSDCTNRC-UHFFFAOYSA-N,?,,CHEMICALS INSPECTION AND TESTING INSTITU (1992),4.74
102086,512-56-1,512-56-1,[H]C([H])([H])OP(=O)(OC([H])([H])[H])OC([H])([H])[H],TRIMETHYL PHOSPHATE,Trimethyl phosphate,trimethyl phosphate,6695,DTXSID1021403,COP(=O)(OC)OC,"InChI=1S/C3H9O4P/c1-5-8(4,6-2)7-3/h1-3H3",WVLBCYQITXONBZ-UHFFFAOYSA-N,?,,"HANSCH,C ET AL. (1995)",-0.65
102087,513-08-6,513-08-6,[H]C([H])([H])C([H])([H])C([H])([H])OP(=O)(OC([H])([H])C([H])([H])C([H])([H])[H])OC([H])([H])C([H])([H])C([H])([H])[H],TRIPROPYL PHOSPHATE,Tripropyl phosphate,tripropyl phosphate,6696,DTXSID4052712,CCCOP(=O)(OCCC)OCCC,"InChI=1S/C9H21O4P/c1-4-7-11-14(10,12-8-5-2)13-9-6-3/h4-9H2,1-3H3",RXPQRKFMDQNODS-UHFFFAOYSA-N,?,,"HANSCH,C ET AL. (1995)",1.87
102089,513-49-5|13952-84-6,13952-84-6,[H]N([H])C([H])(C([H])([H])[H])C([H])([H])C([H])([H])[H],SEC-BUTYLAMINE,2-Butanamine,butan-2-amine,6698|9857,DTXSID4022284,CCC(C)N,"InChI=1S/C4H11N/c1-3-4(2)5/h4H,3,5H2,1-2H3",BHRZNVHARXXAHW-UHFFFAOYSA-N,?,,"HANSCH,C ET AL. (1995)",0.74
102090,513-85-9,513-85-9,[H]OC([H])(C([H])([H])[H])C([H])(O[H])C([H])([H])[H],"2,3-BUTANEDIOL","2,3-Butanediol","butane-2,3-diol",6699,DTXSID8041321,CC(O)C(C)O,"InChI=1S/C4H10O2/c1-3(5)4(2)6/h3-6H,1-2H3",OWBTYPJTUOEWEK-UHFFFAOYSA-N,?,,"HANSCH,C ET AL. (1995)",-0.92
102091,514-61-4,514-61-4,[H]OC1(C([H])([H])[H])C([H])([H])C([H])([H])C2([H])C3([H])C([H])([H])C([H])([H])C4=C([H])C(=O)C([H])([H])C([H])([H])C4([H])C3([H])C([H])([H])C([H])([H])C21C([H])([H])[H],Normethandrone,Normethandrone,(17beta)-17-hydroxy-17-methylestr-4-en-3-one,6700,DTXSID4023383,CC12CCC3C4CCC(=O)C=C4CCC3C1CCC2(C)O,"InChI=1S/C19H28O2/c1-18-9-7-15-14-6-4-13(20)11-12(14)3-5-16(15)17(18)8-10-19(18,2)21/h11,14-17,21H,3-10H2,1-2H3",ZXSWTMLNIIZPET-UHFFFAOYSA-N,?,,"HANSCH,C ET AL. (1995)",2.99