ChemID,source_casrn,CAS,SMILES,NAME,preferred_name,iupac,MPID,dsstox_substance_id,Canonical_QSARr,InChI_Code_QSARr,InChI Key_QSARr,Salt_Solvent,Salt_Solvent_ID,Kow Reference,LogP
103707,2122-63-6,2122-63-6,[H]OC(=O)C1=C([H])C([H])=C(N([H])[H])C(I)=C1[H],"BENZOIC ACID, 4-AMINO-3-IODO-","Benzoic acid, 4-amino-3-iodo-",4-Amino-3-iodobenzoic acid,8233,DTXSID10175450,Nc1ccc(cc1I)C(O)=O,"InChI=1S/C7H6INO2/c8-5-3-4(7(10)11)1-2-6(5)9/h1-3H,9H2,(H,10,11)",FPLDDZRJTOXFCB-UHFFFAOYSA-N,?,,SANGSTER (1994),2.36
103710,2131-41-1,2131-41-1,[H]C1=C([H])C(C([H])([H])[H])=C2C(=C1[H])C(C([H])([H])[H])=C([H])C([H])=C2C([H])([H])[H],"1,4,5-TRIMETHYLNAPHTHALENE","1,4,5-Trimethylnaphthalene","1,4,5-TRIMETHYLNAPHTHALENE",8235,DTXSID50175575,Cc1ccc(C)c2cccc(C)c12,"InChI=1S/C13H14/c1-9-7-8-11(3)13-10(2)5-4-6-12(9)13/h4-8H,1-3H3",FSAWRQYDMHSDRN-UHFFFAOYSA-N,?,,"MILLER,MM ET AL. (1985)",4.9
103711,2131-55-7,2131-55-7,[H]C1=C([H])C(N=C=S)=C([H])C([H])=C1Cl,"BENZENE, 1-CHLORO-4-ISOTHIOCYANATO-",1-Chloro-4-isothiocyanatobenzene,1-Chloro-4-isothiocyanatobenzene,8236,DTXSID70175577,S=C=Nc1ccc(Cl)cc1,InChI=1S/C7H4ClNS/c8-6-1-3-7(4-2-6)9-5-10/h1-4H,MZZVFXMTZTVUFO-UHFFFAOYSA-N,?,,"AUGUSTIN,S ET AL. (1987)",3.91
103712,2131-59-1,2131-59-1,[H]C1=C([H])C(N=C=S)=C([H])C(Br)=C1[H],"BENZENE, 1-BROMO-3-ISOTHIOCYANATO-","Isothiocyanic acid, m-bromophenyl ester",1-bromo-3-isothiocyanatobenzene,8237,DTXSID30175578,S=C=Nc1cccc(Br)c1,InChI=1S/C7H4BrNS/c8-6-2-1-3-7(4-6)9-5-10/h1-4H,ZMGMGHNOACSMQN-UHFFFAOYSA-N,?,,POMONA (1987),4.12
103714,2131-61-5,2131-61-5,[H]C1=C([H])C([N+](=O)[O-])=C([H])C([H])=C1N=C=S,4-NITROPHENYLISOTHIOCYANATE,"Benzene, 1-isothiocyanato-4-nitro-",1-isothiocyanato-4-nitrobenzene,8239,DTXSID9062198,[O-][N+](=O)c1ccc(cc1)N=C=S,InChI=1S/C7H4N2O2S/c10-9(11)7-3-1-6(2-4-7)8-5-12/h1-4H,NXHSSIGRWJENBH-UHFFFAOYSA-N,?,,"HANSCH,C ET AL. (1995)",3.62
103715,2131-62-6,2131-62-6,[H]OC(=O)C1=C([H])C([H])=C(N=C=S)C([H])=C1[H],4-CARBOXYPHENYLISOTHIOCYANATE,4-Isothiocyanatobenzoic acid,4-Isothiocyanatobenzoic acid,8240,DTXSID90175579,OC(=O)c1ccc(cc1)N=C=S,"InChI=1S/C8H5NO2S/c10-8(11)6-1-3-7(4-2-6)9-5-12/h1-4H,(H,10,11)",RBEFRYQKJYMLCC-UHFFFAOYSA-N,?,,"HANSCH,C ET AL. (1995)",3.52
103716,2131-64-8,2131-64-8,[H]C1=C([H])C(N(C([H])([H])[H])C([H])([H])[H])=C([H])C([H])=C1N=C=S,"BENZENAMINE, 4-ISOTHIOCYANATO-N,N-DIMETHYL-","Isothiocyanic acid, p-dimethylaminophenyl ester","4-Isothiocyanato-N,N-dimethylaniline",8241,DTXSID60175581,CN(C)c1ccc(cc1)N=C=S,"InChI=1S/C9H10N2S/c1-11(2)9-5-3-8(4-6-9)10-7-12/h3-6H,1-2H3",HRDJPEMAGYHSJR-UHFFFAOYSA-N,?,,"AUGUSTIN,S ET AL. (1987)",3.96
103719,2136-99-4,2136-99-4,[H]C1=C(Cl)C(Cl)=C(C2=C(Cl)C(Cl)=C([H])C(Cl)=C2Cl)C(Cl)=C1Cl,"2,2',3,3',5,5',6,6'-OCTACHLOROBIPHENYL","2,2',3,3',5,5',6,6'-Octachlorobiphenyl","1,2,4,5-tetrachloro-3-(2,3,5,6-tetrachlorophenyl)benzene",8243,DTXSID0074132,Clc1cc(Cl)c(Cl)c(-c2c(Cl)c(Cl)cc(Cl)c2Cl)c1Cl,InChI=1S/C12H2Cl8/c13-3-1-4(14)10(18)7(9(3)17)8-11(19)5(15)2-6(16)12(8)20/h1-2H,JPOPEORRMSDUIP-UHFFFAOYSA-N,?,,"DEBRUIJN,J ET AL. (1989)",7.73
103720,2140-61-6,NOCAS_862841,[H]OC([H])([H])C1([H])OC([H])(N2C(=O)N=C(N([H])[H])C(C([H])([H])[H])=C2[H])C([H])(O[H])C1([H])O[H],5-METHYLCYTIDINE,,,8244,DTXSID40862841,CC1=CN(C2OC(CO)C(O)C2O)C(=O)N=C1N,"InChI=1S/C10H15N3O5/c1-4-2-13(10(17)12-8(4)11)9-7(16)6(15)5(3-14)18-9/h2,5-7,9,14-16H,3H2,1H3,(H2,11,12,17)",ZAYHVCMSTBRABG-UHFFFAOYSA-N,?,,"HANSCH,C ET AL. (1995)",-2.01
103721,2142-63-4,2142-63-4,[H]C1=C([H])C(C(=O)C([H])([H])[H])=C([H])C(Br)=C1[H],M-BROMOACETOPHENONE,,,8245,DTXSID40870941,CC(=O)c1cccc(Br)c1,"InChI=1S/C8H7BrO/c1-6(10)7-3-2-4-8(9)5-7/h2-5H,1H3",JYAQYXOVOHJRCS-UHFFFAOYSA-N,?,,"DUNN,WJ ET AL. (1983)",2.47
103723,2142-69-0,2142-69-0,[H]C1=C([H])C([H])=C(C(=O)C([H])([H])[H])C(Br)=C1[H],"ETHANONE, 1-(2-BROMOPHENYL)-",2'-Bromoacetophenone,1-(2-bromophenyl)ethanone,8247,DTXSID90175690,CC(=O)c1ccccc1Br,"InChI=1S/C8H7BrO/c1-6(10)7-4-2-3-5-8(7)9/h2-5H,1H3",PIMNFNXBTGPCIL-UHFFFAOYSA-N,?,,SANGSTER (1993),2.28
103724,2143-80-8,2143-80-8,[H]C1=C([H])C(F)=C(/C([H])=C(\[H])C(=O)C([H])([H])[H])C([H])=C1[H],"3-Buten-2-one,4-(2-fluorophenyl)-",,,8248,DTXSID10876253,CC(=O)C=Cc1ccccc1F,"InChI=1S/C10H9FO/c1-8(12)6-7-9-4-2-3-5-10(9)11/h2-7H,1H3/b7-6+",ZUZCIZDIGXGYDS-VOTSOKGWSA-N,?,,"YAMAGAMI,C ET AL. (1998)",2.34
103725,2144-41-4,NOCAS_862510,[H]C([H])([H])C1([H])OC([H])(C([H])([H])[H])C([H])([H])C1([H])[H],"CIS-2,5-DIMETHYLTETRAHYDROFURAN",,,8249,DTXSID10862510,CC1CCC(C)O1,"InChI=1S/C6H12O/c1-5-3-4-6(2)7-5/h5-6H,3-4H2,1-2H3",OXMIDRBAFOEOQT-UHFFFAOYSA-N,?,,"FUNASAKI,N ET AL. (1985)",1.22
103727,2150-93-8,2150-93-8,[H]C1=C([H])C(N([H])C(=O)C([H])([H])[H])=C([H])C(Cl)=C1Cl,"N-(3,4-DICHLOROPHENYL)ACETAMIDE","3,4-Dichloroacetanilide","N-(3,4-DICHLOROPHENYL)ACETAMIDE",8251,DTXSID00175843,CC(=O)Nc1cc(Cl)c(Cl)cc1,"InChI=1S/C8H7Cl2NO/c1-5(12)11-6-2-3-7(9)8(10)4-6/h2-4H,1H3,(H,11,12)",SCYGGCAQZFJGRF-UHFFFAOYSA-N,?,,"NAKAGAWA,Y ET AL. (1992)",3.0
103728,2150-95-0,2150-95-0,[H]C1=C([H])C(N([H])C(=O)C([H])([H])C([H])([H])C([H])([H])[H])=C([H])C(Cl)=C1Cl,"BUTANAMIDE, N-(3,4-DICHLOROPHENYL)-","N-(3,4-dichlorophenyl)butanamide",C10H11Cl2NO,8252,DTXSID40283618,CCCC(=O)Nc1cc(Cl)c(Cl)cc1,"InChI=1S/C10H11Cl2NO/c1-2-3-10(14)13-7-4-5-8(11)9(12)6-7/h4-6H,2-3H2,1H3,(H,13,14)",NNIIRGXUFKHOKI-UHFFFAOYSA-N,?,,POMONA (1987),3.77
103729,2150-96-1,2150-96-1,[H]C1=C([H])C(N([H])C(=O)C([H])([H])C([H])([H])C([H])([H])C([H])([H])[H])=C([H])C(Cl)=C1Cl,"PENTANAMIDE, N-(3,4-DICHLOROPHENYL)-",,,8253,DTXSID10876379,CCCCC(=O)Nc1cc(Cl)c(Cl)cc1,"InChI=1S/C11H13Cl2NO/c1-2-3-4-11(15)14-8-5-6-9(12)10(13)7-8/h5-7H,2-4H2,1H3,(H,14,15)",BMSSRNRFXGWOEZ-UHFFFAOYSA-N,?,,POMONA (1987),4.17
103731,2153-10-8,2153-10-8,[H]OC1=C([H])C([H])=C(N([H])C(=O)C([H])(Cl)Cl)C([H])=C1[H],4-HYDROXY DICHLOROACETANILIDE,,,8255,DTXSID80879332,Oc1ccc(cc1)NC(=O)C(Cl)Cl,"InChI=1S/C8H7Cl2NO2/c9-7(10)8(13)11-5-1-3-6(12)4-2-5/h1-4,7,12H,(H,11,13)",WIWSJWAXUVHJBW-UHFFFAOYSA-N,?,,"DUTTA,H ET AL. (1988)",1.6
103732,2156-14-1,2156-14-1,[H]C1=C([H])C([H])=C(C2=C([H])C([H])=C(C3([H])C(=O)C4=C([H])C([H])=C([H])C([H])=C4C3=O)C([H])=C2[H])C([H])=C1[H],"1H-INDENE-1,3(2H)-DIONE, 2-[1,1'-BIPHENYL]-4-YL-",,,8256,DTXSID60878545,O=C1C(c2ccc(cc2)-c2ccccc2)C(=O)c2ccccc12,"InChI=1S/C21H14O2/c22-20-17-8-4-5-9-18(17)21(23)19(20)16-12-10-15(11-13-16)14-6-2-1-3-7-14/h1-13,19H",FKIGKEFBTLDBNH-UHFFFAOYSA-N,?,,SANGSTER (1993),4.79
103733,2157-98-4|6923-22-4,2157-98-4|6923-22-4,[H]/C(C(=O)N([H])C([H])([H])[H])=C(\OP(=O)(OC([H])([H])[H])OC([H])([H])[H])C([H])([H])[H],"Monocrotophos E+Z-isomers, AZODRIN",Alphate,dimethyl 4-(methylamino)-4-oxobut-2-en-2-yl phosphate,8257|9469,DTXSID5042164|DTXSID9034816,CC(=CC(=O)NC)OP(=O)(OC)OC,"InChI=1S/C7H14NO5P/c1-6(5-7(9)8-2)13-14(10,11-3)12-4/h5H,1-4H3,(H,8,9)/b6-5+",KRTSDMXIXPKRQR-AATRIKPKSA-N,?,,BIOBYTE (1995),-0.2
103735,2163-80-6,2163-80-6,[H]O[As](=O)(O[H])C([H])([H])[H],MSMA,Monosodium methanearsonate,sodium hydrogen methylarsonate,8259,DTXSID2025686,C[As](O)(O)=O,"InChI=1S/CH5AsO3/c1-2(3,4)5/h1H3,(H2,3,4,5)",QYPPRTNMGCREIM-UHFFFAOYSA-N,[Na+],7,"HANSCH,C ET AL. (1995)",-3.1
103736,2164-17-2,2164-17-2,[H]C1=C([H])C(N([H])C(=O)N(C([H])([H])[H])C([H])([H])[H])=C([H])C(C(F)(F)F)=C1[H],FLUOMETURON,Fluometuron,"1,1-dimethyl-3-[3-(trifluoromethyl)phenyl]urea",8260,DTXSID8020628,CN(C)C(=O)Nc1cc(ccc1)C(F)(F)F,"InChI=1S/C10H11F3N2O/c1-15(2)9(16)14-8-5-3-4-7(6-8)10(11,12)13/h3-6H,1-2H3,(H,14,16)",RZILCCPWPBTYDO-UHFFFAOYSA-N,?,,"HANSCH,C ET AL. (1995)",2.42
103737,2169-64-4,2169-64-4,[H]C1=NN(C2([H])OC([H])(C([H])([H])OC(=O)C([H])([H])[H])C([H])(OC(=O)C([H])([H])[H])C2([H])OC(=O)C([H])([H])[H])C(=O)N([H])C1=O,6-AZAURIDINETRIACETATE,6-Azaribine,"2-(2,3,5-tri-O-acetyl-beta-D-ribofuranosyl)-1,2,4-triazine-3,5(2H,4H)-dione",8261,DTXSID1022635,CC(=O)OC1C(OC(C)=O)C(COC(C)=O)OC1N1N=CC(=O)NC1=O,"InChI=1S/C14H17N3O9/c1-6(18)23-5-9-11(24-7(2)19)12(25-8(3)20)13(26-9)17-14(22)16-10(21)4-15-17/h4,9,11-13H,5H2,1-3H3,(H,16,21,22)",QQOBRRFOVWGIMD-UHFFFAOYSA-N,?,,"HANSCH,C ET AL. (1995)",-0.2
103739,2176-62-7,2176-62-7,ClC1=NC(Cl)=C(Cl)C(Cl)=C1Cl,"2,3,4,5,6-PENTACHLORPYRIDINE",Pentachloropyridine,pentachloropyridine,8263,DTXSID2022179,Clc1c(Cl)c(Cl)[n]c(Cl)c1Cl,InChI=1S/C5Cl5N/c6-1-2(7)4(9)11-5(10)3(1)8,DNDPLEAVNVOOQZ-UHFFFAOYSA-N,?,,"HANSCH,C ET AL. (1995)",3.53
103740,2180-92-9,38396-39-3,[H]C1=C([H])C(C([H])([H])[H])=C(N([H])C(=O)C2([H])N(C([H])([H])C([H])([H])C([H])([H])C([H])([H])[H])C([H])([H])C([H])([H])C([H])([H])C2([H])[H])C(C([H])([H])[H])=C1[H],BUPIVACAINE,Bupivacaine,"1-butyl-N-(2,6-dimethylphenyl)piperidine-2-carboxamide",8264,DTXSID2022703,CCCCN1CCCCC1C(=O)Nc1c(C)cccc1C,"InChI=1S/C18H28N2O/c1-4-5-12-20-13-7-6-11-16(20)18(21)19-17-14(2)9-8-10-15(17)3/h8-10,16H,4-7,11-13H2,1-3H3,(H,19,21)",LEBVLXFERQHONN-UHFFFAOYSA-N,?,,"HANSCH,C ET AL. (1995)",3.41
103741,2183-54-2,2183-54-2,[H]OC1=C(C([H])([H])O[H])C([H])=C(Br)C([H])=C1Br,"BENZENEMETHANOL, 3,5-DIBROMO-2-HYDROXY-","2,4-dibromo-6-(hydroxymethyl)phenol",C7H6Br2O2,8265,DTXSID60348455,Oc1c(Br)cc(Br)cc1CO,"InChI=1S/C7H6Br2O2/c8-5-1-4(3-10)7(11)6(9)2-5/h1-2,10-11H,3H2",AXRZRBIBAABFEA-UHFFFAOYSA-N,?,,"TAKAGI,T ET AL. (1992)",2.72
103743,2189-61-9,2189-61-9,[H]C1=C([H])C([N+](=O)[O-])=C([H])C(N([H])C(=O)OC([H])([H])[H])=C1[H],"CARBAMIC ACID, (3-NITROPHENYL)-, METHYL ESTER",Methyl N-(3-nitrophenyl)carbamate,C8H8N2O4,8267,DTXSID90404134,COC(=O)Nc1cc(ccc1)[N+]([O-])=O,"InChI=1S/C8H8N2O4/c1-14-8(11)9-6-3-2-4-7(5-6)10(12)13/h2-5H,1H3,(H,9,11)",ZMHNYWIJOJZOJY-UHFFFAOYSA-N,?,,"TAKAHASHI,K ET AL. (1988)",2.0
103744,2198-53-0,2198-53-0,[H]C1=C([H])C(C([H])([H])[H])=C(N([H])C(=O)C([H])([H])[H])C(C([H])([H])[H])=C1[H],"2,6-DIMETHYLACETANILIDE","Acetamide, N-(2,6-dimethylphenyl)-","N-(2,6-Dimethylphenyl)acetamide",8268,DTXSID2062244,CC(=O)Nc1c(C)cccc1C,"InChI=1S/C10H13NO/c1-7-5-4-6-8(2)10(7)11-9(3)12/h4-6H,1-3H3,(H,11,12)",NRPTXWYBRKRZES-UHFFFAOYSA-N,?,,"NAKAGAWA,Y ET AL. (1992)",1.07
103745,2198-54-1,2198-54-1,[H]C1=C(N([H])C(=O)C([H])([H])[H])C([H])=C(C([H])([H])[H])C(C([H])([H])[H])=C1[H],"3,4-DIMETHYLACETANILIDE","Acetamide, N-(3,4-dimethylphenyl)- (9CI)","N-(3,4-Dimethylphenyl)acetamide",8269,DTXSID80176393,Cc1cc(ccc1C)NC(C)=O,"InChI=1S/C10H13NO/c1-7-4-5-10(6-8(7)2)11-9(3)12/h4-6H,1-3H3,(H,11,12)",UAOIEEWQVAXCFY-UHFFFAOYSA-N,?,,"NAKAGAWA,Y ET AL. (1992)",2.1
103747,2199-43-1,2199-43-1,[H]C1=C([H])N([H])C(C(=O)OC([H])([H])C([H])([H])[H])=C1[H],"1H-PYRROLE-2-CARBOXYLIC ACID, ETHYL ESTER",Ethyl pyrrole-2-carboxylate,C7H9NO2,8271,DTXSID90292290,CCOC(=O)c1ccc[nH]1,"InChI=1S/C7H9NO2/c1-2-10-7(9)6-4-3-5-8-6/h3-5,8H,2H2,1H3",PAEYAKGINDQUCT-UHFFFAOYSA-N,?,,"YAMAGAMI,C ET AL. (1994)",1.73
103748,2199-49-7,2199-49-7,[H]C1=C(C(=O)OC([H])([H])C([H])([H])[H])C(C([H])([H])[H])=C([H])N1[H],"PYRROLE-3-CARBOXYLIC ACID-4-METHYL,ETHYL ESTER",ethyl 4-methyl-1h-pyrrole-3-carboxylate,C8H11NO2,8272,DTXSID70284158,Cc1c[nH]cc1C(=O)OCC,"InChI=1S/C8H11NO2/c1-3-11-8(10)7-5-9-4-6(7)2/h4-5,9H,3H2,1-2H3",MMDOYVVZUVZLHQ-UHFFFAOYSA-N,?,,"HANSCH,C ET AL. (1995)",2.14
103749,2202-79-1,2202-79-1,[H]C1=C([H])C(=O)C2=C([H])C(C([H])([H])[H])=C(C([H])([H])[H])C([H])=C2C1=O,"1,4-NAPHTHOQUINONE,6,7-DIMETHYL","6,7-dimethyl-1,4-naphthoquinone",C12H10O2,8273,DTXSID70289123,Cc1cc2c(cc1C)C(=O)C=CC2=O,"InChI=1S/C12H10O2/c1-7-5-9-10(6-8(7)2)12(14)4-3-11(9)13/h3-6H,1-2H3",XQSNCIHUBDBBFY-UHFFFAOYSA-N,?,,"HANSCH,C ET AL. (1995)",2.49
103753,2212-67-1,2212-67-1,[H]C([H])([H])C([H])([H])SC(=O)N1C([H])([H])C([H])([H])C([H])([H])C([H])([H])C([H])([H])C1([H])[H],MOLINATE,Molinate,S-ethyl azepane-1-carbothioate,8275,DTXSID6024206,CCSC(=O)N1CCCCCC1,"InChI=1S/C9H17NOS/c1-2-12-9(11)10-7-5-3-4-6-8-10/h2-8H2,1H3",DEDOPGXGGQYYMW-UHFFFAOYSA-N,?,,"HANSCH,C ET AL. (1995)",3.21
103754,2213-43-6,2213-43-6,[H]N([H])N1C([H])([H])C([H])([H])C([H])([H])C([H])([H])C1([H])[H],N-AMINOPIPERIDINE,N-Aminopiperidine,piperidin-1-amine,8276,DTXSID60176654,NN1CCCCC1,InChI=1S/C5H12N2/c6-7-4-2-1-3-5-7/h1-6H2,LWMPFIOTEAXAGV-UHFFFAOYSA-N,?,,"HANSCH,C ET AL. (1995)",-0.28
103755,2213-70-9,2213-70-9,[H]C1=C(Cl)C(OP(=O)(OC([H])([H])[H])N([H])C([H])([H])[H])=C([H])C(Cl)=C1Cl,"O=P(OME)(NME)O-2,4,5-CLPHENYL",,,8277,DTXSID30875788,COP(=O)(NC)Oc1cc(Cl)c(Cl)cc1Cl,"InChI=1S/C8H9Cl3NO3P/c1-12-16(13,14-2)15-8-4-6(10)5(9)3-7(8)11/h3-4H,1-2H3,(H,12,13)",OPFJKVGQWCGWOI-UHFFFAOYSA-N,?,,"HANSCH,C & LEO,AJ (1985)",3.06
103757,2213-85-6,2213-85-6,[H]C1=C(Cl)C(OP(=O)(OC([H])([H])[H])N([H])C([H])([H])C([H])([H])C([H])([H])[H])=C([H])C(Cl)=C1Cl,"O=P(OME)(NPR)O-2,4,5-CLPHENYL",,,8279,DTXSID50874096,COP(=O)(NCCC)Oc1cc(Cl)c(Cl)cc1Cl,"InChI=1S/C10H13Cl3NO3P/c1-3-4-14-18(15,16-2)17-10-6-8(12)7(11)5-9(10)13/h5-6H,3-4H2,1-2H3,(H,14,15)",VWHOWYPQOJTWAS-UHFFFAOYSA-N,?,,"HANSCH,C & LEO,AJ (1985)",3.7
103758,2213-87-8,2213-87-8,[H]C1=C(Cl)C(OP(=O)(OC([H])([H])[H])N([H])C([H])([H])C([H])([H])C([H])([H])C([H])([H])[H])=C([H])C(Cl)=C1Cl,"PHOSPHORAMIDIC ACID, N-BUTYL-, O-METHYL O-(2,4,5",,,8280,DTXSID40874227,COP(=O)(NCCCC)Oc1cc(Cl)c(Cl)cc1Cl,"InChI=1S/C11H15Cl3NO3P/c1-3-4-5-15-19(16,17-2)18-11-7-9(13)8(12)6-10(11)14/h6-7H,3-5H2,1-2H3,(H,15,16)",ZUNOVVYJZFJCSI-UHFFFAOYSA-N,?,,"HANSCH,C & LEO,AJ (1985)",4.18
103759,2213-88-9,2213-88-9,[H]C1=C(Cl)C(OP(=O)(OC([H])([H])[H])N([H])C([H])([H])C([H])(C([H])([H])[H])C([H])([H])[H])=C([H])C(Cl)=C1Cl,"PHOSPHORAMIDIC ACID, N-(2-METHYLPROPYL)-, O-METH",,,8281,DTXSID60874229,COP(=O)(NCC(C)C)Oc1cc(Cl)c(Cl)cc1Cl,"InChI=1S/C11H15Cl3NO3P/c1-7(2)6-15-19(16,17-3)18-11-5-9(13)8(12)4-10(11)14/h4-5,7H,6H2,1-3H3,(H,15,16)",LFGXVNUFEUNVNU-UHFFFAOYSA-N,?,,"HANSCH,C & LEO,AJ (1985)",3.86
103761,2214-34-8,2214-34-8,[H]C1=C(Cl)C(OP(=O)(OC([H])([H])[H])N([H])[H])=C([H])C(Cl)=C1Cl,"O=P(OME)(N)O-2,4,5-CLPHENYL",,,8283,DTXSID40875714,COP(N)(=O)Oc1cc(Cl)c(Cl)cc1Cl,"InChI=1S/C7H7Cl3NO3P/c1-13-15(11,12)14-7-3-5(9)4(8)2-6(7)10/h2-3H,1H3,(H2,11,12)",LHLSFIFWJGRDOC-UHFFFAOYSA-N,?,,"HANSCH,C & LEO,AJ (1985)",2.53
103762,2214-53-1,2214-53-1,[H]C1=NC(C([H])([H])[H])=C([H])C(C#N)=C1[H],4-CYANO-2-METHYLPYRIDINE,2-methylisonicotinonitrile,C7H6N2,8284,DTXSID70474774,Cc1cc(cc[n]1)C#N,"InChI=1S/C7H6N2/c1-6-4-7(5-8)2-3-9-6/h2-4H,1H3",SBWJLHPCEHEABR-UHFFFAOYSA-N,?,,"HANSCH,C ET AL. (1995)",0.81
103763,2215-77-2,2215-77-2,[H]OC(=O)C1=C([H])C([H])=C(OC2=C([H])C([H])=C([H])C([H])=C2[H])C([H])=C1[H],P-PHENOXYBENZOIC ACID,"Benzoic acid, 4-phenoxy-",4-(phenoxy)benzoic acid,8285,DTXSID6062258,OC(=O)c1ccc(cc1)Oc1ccccc1,"InChI=1S/C13H10O3/c14-13(15)10-6-8-12(9-7-10)16-11-4-2-1-3-5-11/h1-9H,(H,14,15)",RYAQFHLUEMJOMF-UHFFFAOYSA-N,?,,"HANSCH,C ET AL. (1995)",3.91
103766,2216-68-4,2216-68-4,[H]C1=C([H])C([H])=C2C(=C1[H])C([H])=C([H])C([H])=C2N([H])C([H])([H])[H],"1-NAPHTHALENAMINE, N-METHYL-","1-Naphthalenamine, N-methyl-",N-methylnaphthalen-1-amine,8288,DTXSID0062262,CNc1cccc2ccccc21,"InChI=1S/C11H11N/c1-12-11-8-4-6-9-5-2-3-7-10(9)11/h2-8,12H,1H3",AKEYUWUEAXIBTF-UHFFFAOYSA-N,?,,POMONA (1987),2.88
103767,2216-69-5,2216-69-5,[H]C1=C([H])C([H])=C2C(OC([H])([H])[H])=C([H])C([H])=C([H])C2=C1[H],"NAPHTHALENE, 1-METHOXY-","Naphthalene, 1-methoxy-",1-Methoxynaphthalene,8289,DTXSID5062263,COc1cccc2ccccc21,"InChI=1S/C11H10O/c1-12-11-8-4-6-9-5-2-3-7-10(9)11/h2-8H,1H3",NQMUGNMMFTYOHK-UHFFFAOYSA-N,?,,CHEMICALS INSPECTION AND TESTING INSTITU (1992),3.45
103768,2217-02-9,2217-02-9,[H]OC1([H])C2(C([H])([H])[H])C([H])([H])C([H])([H])C([H])(C2([H])[H])C1(C([H])([H])[H])C([H])([H])[H],(+)-Fenchol,(1R)-endo-(+)-Fenchyl alcohol,"(1R,2R,4S)-1,3,3-trimethylbicyclo[2.2.1]heptan-2-ol",8290,DTXSID6044307,CC1(C)C(O)C2(C)CC1CC2,"InChI=1S/C10H18O/c1-9(2)7-4-5-10(3,6-7)8(9)11/h7-8,11H,4-6H2,1-3H3",IAIHUHQCLTYTSF-UHFFFAOYSA-N,?,,"GRIFFIN,S ET AL. (1999)",3.17
103771,2221-11-6,2221-11-6,[H]C1=C([H])C([H])=C(C([H])([H])N2C(=O)N([H])C([H])(C([H])([H])C3=C([H])C([H])=C([H])C([H])=C3[H])C2=O)C([H])=C1[H],"2,4-IMIDAZOLIDINEDIONE, 3,5-BIS(PHENYLMETHYL)-",,,8292,DTXSID20874907,O=C1C(Cc2ccccc2)NC(=O)N1Cc1ccccc1,"InChI=1S/C17H16N2O2/c20-16-15(11-13-7-3-1-4-8-13)18-17(21)19(16)12-14-9-5-2-6-10-14/h1-10,15H,11-12H2,(H,18,21)",DGDSEHIUUMNLCW-UHFFFAOYSA-N,?,,SANGSTER (1994),2.84
103772,2221-12-7,2221-12-7,[H]C1=C([H])C([H])=C(N2C(=O)N(C([H])([H])[H])C([H])([H])C2=O)C([H])=C1[H],"2,4-IMIDAZOLIDINEDIONE, 1-METHYL-3-PHENYL-","2,4-Imidazolidinedione, 1-methyl-3-phenyl-",C10H10N2O2,8293,DTXSID30444675,CN1CC(=O)N(c2ccccc2)C1=O,"InChI=1S/C10H10N2O2/c1-11-7-9(13)12(10(11)14)8-5-3-2-4-6-8/h2-6H,7H2,1H3",YLKKRCYFGKGCKZ-UHFFFAOYSA-N,?,,SANGSTER (1994),0.14
103773,2221-13-8,2221-13-8,[H]C1=C([H])C([H])=C(N2C(=O)N([H])C([H])([H])C2=O)C([H])=C1[H],"N-PHENYL-2,5-IMIDAZOLIDIONE","3-phenylimidazolidine-2,4-dione",C9H8N2O2,8294,DTXSID30281103,O=C1NCC(=O)N1c1ccccc1,"InChI=1S/C9H8N2O2/c12-8-6-10-9(13)11(8)7-4-2-1-3-5-7/h1-5H,6H2,(H,10,13)",RUEGAVIENIPHGK-UHFFFAOYSA-N,?,,"LIPINSKI,CA ET AL. (1991)",0.04
103775,2234-13-1,2234-13-1,ClC1=C(Cl)C(Cl)=C2C(Cl)=C(Cl)C(Cl)=C(Cl)C2=C1Cl,OCTACHLORONAPHTHALENE,Octachloronaphthalene,octachloronaphthalene,8296,DTXSID6025800,Clc1c2c(c(Cl)c(Cl)c1Cl)c(Cl)c(Cl)c(Cl)c2Cl,InChI=1S/C10Cl8/c11-3-1-2(5(13)9(17)7(3)15)6(14)10(18)8(16)4(1)12,RTNLUFLDZOAXIC-UHFFFAOYSA-N,?,,"LEI,YD ET AL. (2000)",8.5
103776,2235-83-8,2235-83-8,[H]C1=C([H])C([H])=C(C([H])([H])C([H])([H])C([H])([H])C(=O)C([H])([H])[H])C([H])=C1[H],5-PHENYL-2-PENTANONE,5-Phenylpentan-2-one,5-Phenylpentan-2-one,8297,DTXSID10176886,CC(=O)CCCc1ccccc1,"InChI=1S/C11H14O/c1-10(12)6-5-9-11-7-3-2-4-8-11/h2-4,7-8H,5-6,9H2,1H3",DGMYRPFYNFQCHM-UHFFFAOYSA-N,?,,"HANSCH,C ET AL. (1995)",2.42
103777,2237-30-1,2237-30-1,[H]C1=C([H])C(C#N)=C([H])C(N([H])[H])=C1[H],M-AMINOBENZONITRILE,3-Aminobenzonitrile,3-Aminobenzonitrile,8298,DTXSID90176905,Nc1cc(ccc1)C#N,"InChI=1S/C7H6N2/c8-5-6-2-1-3-7(9)4-6/h1-4H,9H2",NJXPYZHXZZCTNI-UHFFFAOYSA-N,?,,"HANSCH,C ET AL. (1995)",1.07
103779,2240-41-7,2240-41-7,[H]C1=C([H])C([H])=C(P(=O)(OC([H])([H])[H])OC([H])([H])[H])C([H])=C1[H],"O,O-DIMETHYLPHENYLPHOSPHONATE","Phosphonic acid, phenyl-, O,O-dimethyl ester",dimethoxyphosphorylbenzene,8300,DTXSID20176933,COP(=O)(OC)c1ccccc1,"InChI=1S/C8H11O3P/c1-10-12(9,11-2)8-6-4-3-5-7-8/h3-7H,1-2H3",OXDOANYFRLHSML-UHFFFAOYSA-N,?,,"HANSCH,C ET AL. (1995)",0.95
103780,2240-88-2,NOCAS_870950,[H]OC([H])([H])C([H])([H])C(F)(F)F,"3,3,3-TRIFLUORO-1-PROPANOL",,,8301,DTXSID30870950,OCCC(F)(F)F,"InChI=1S/C3H5F3O/c4-3(5,6)1-2-7/h7H,1-2H2",HDBGBTNNPRCVND-UHFFFAOYSA-N,?,,"MULLER,N (1986)",0.39
103781,2243-27-8,2243-27-8,[H]C([H])([H])C([H])([H])C([H])([H])C([H])([H])C([H])([H])C([H])([H])C([H])([H])C([H])([H])C#N,NONANONITRILE,Octyl cyanide,nonanenitrile,8302,DTXSID6022183,CCCCCCCCC#N,"InChI=1S/C9H17N/c1-2-3-4-5-6-7-8-9-10/h2-8H2,1H3",PLZZPPHAMDJOSR-UHFFFAOYSA-N,?,,"TANII,H & HASHIMOTO,K (1984)",3.12
103783,2243-62-1,2243-62-1,[H]C1=C([H])C2=C(N([H])[H])C([H])=C([H])C([H])=C2C(N([H])[H])=C1[H],"1,5-DIAMINONAPHTHALENE","1,5-Naphthalenediamine","naphthalene-1,5-diamine",8304,DTXSID3020916,Nc1cccc2c1cccc2N,"InChI=1S/C10H10N2/c11-9-5-1-3-7-8(9)4-2-6-10(7)12/h1-6H,11-12H2",KQSABULTKYLFEV-UHFFFAOYSA-N,?,,"SCHULTZ,TW & APPLEHANS,FM (1985)",0.89
103784,2243-81-4,2243-81-4,[H]C1=C([H])C([H])=C2C(C(=O)N([H])[H])=C([H])C([H])=C([H])C2=C1[H],1-NAPHTHALENECARBOXAMIDE,1-Naphthalenecarboxamide,naphthalene-1-carboxamide,8305,DTXSID90176960,NC(=O)c1cccc2ccccc21,"InChI=1S/C11H9NO/c12-11(13)10-7-3-5-8-4-1-2-6-9(8)10/h1-7H,(H2,12,13)",RMHJJUOPOWPRBP-UHFFFAOYSA-N,?,,"ALCORN,CR ET AL. (1993)",1.88
103785,2251-64-1,2251-64-1,[H]C1=C([H])C2=C(N=C(C(F)(F)F)N([H])S2(=O)=O)C([H])=C1Cl,124-BENZTHIADIZ-1-O2-3-CF3-6-CL,,,8306,DTXSID60879274,O=S1(=O)NC(=Nc2cc(Cl)ccc12)C(F)(F)F,"InChI=1S/C8H4ClF3N2O2S/c9-4-1-2-6-5(3-4)13-7(8(10,11)12)14-17(6,15)16/h1-3H,(H,13,14)",VHHMSSIZIMLPKD-UHFFFAOYSA-N,?,,"HANSCH,C ET AL. (1995)",1.65
103787,2255-15-4,2255-15-4,[H]C1=C([H])C([N+](=O)[O-])=C(Cl)C([H])=C1OP(=O)(OC([H])([H])[H])OC([H])([H])[H],3-CHLORO-DIMETHYL PARA-OXON,"Phosphoric acid, 3-chloro-4-nitrophenyl dimethyl ester",(3-chloro-4-nitrophenyl) dimethyl phosphate,8308,DTXSID40177083,COP(=O)(Oc1cc(Cl)c(cc1)[N+]([O-])=O)OC,"InChI=1S/C8H9ClNO6P/c1-14-17(13,15-2)16-6-3-4-8(10(11)12)7(9)5-6/h3-5H,1-2H3",LVSQMNHBBYWRRX-UHFFFAOYSA-N,?,,"HANSCH,C & LEO,AJ (1985)",1.83