ChemID,source_casrn,CAS,SMILES,NAME,preferred_name,iupac,MPID,dsstox_substance_id,Canonical_QSARr,InChI_Code_QSARr,InChI Key_QSARr,Salt_Solvent,Salt_Solvent_ID,Kow Reference,LogP
101453,125-55-3,NOCAS_871609,[H]C([H])=C(Br)C([H])([H])C1(C([H])(C([H])([H])[H])C([H])([H])[H])C(=O)N([H])C(=O)N(C([H])([H])[H])C1=O,"BARBITURIC ACID,5-IPR,5-BR-ALLYL,N-ME",,,6089,DTXSID30871609,CC(C)C1(CC(=C)Br)C(=O)NC(=O)N(C)C1=O,"InChI=1S/C11H15BrN2O3/c1-6(2)11(5-7(3)12)8(15)13-10(17)14(4)9(11)16/h6H,3,5H2,1-2,4H3,(H,13,15,17)",WGMASVSHOSNKMF-UHFFFAOYSA-N,?,,"HANSCH,C ET AL. (1995)",2.11
101454,125-64-4,125-64-4,[H]N1C(=O)C(C([H])([H])C([H])([H])[H])(C([H])([H])C([H])([H])[H])C(=O)C([H])(C([H])([H])[H])C1([H])[H],DIMERIN,Methyprylon,"3,3-diethyl-5-methylpiperidine-2,4-dione",6090,DTXSID7023306,CC1CNC(=O)C(CC)(CC)C1=O,"InChI=1S/C10H17NO2/c1-4-10(5-2)8(12)7(3)6-11-9(10)13/h7H,4-6H2,1-3H3,(H,11,13)",SIDLZWOQUZRBRU-UHFFFAOYSA-N,?,,SANGSTER (1994),0.78
101457,126-07-8,126-07-8,[H]C1=C(OC([H])([H])[H])C(Cl)=C2OC3(C(=O)C2=C1OC([H])([H])[H])C(OC([H])([H])[H])=C([H])C(=O)C([H])([H])C3([H])C([H])([H])[H],GRISEOFULVIN,Griseofulvin,"(2S,6'R)-7-chloro-2',4,6-trimethoxy-6'-methyl-3H,4'H-spiro[1-benzofuran-2,1'-cyclohex[2]ene]-3,4'-dione",6091,DTXSID8020674,COC1=CC(=O)CC(C)C21Oc1c(Cl)c(cc(OC)c1C2=O)OC,"InChI=1S/C17H17ClO6/c1-8-5-9(19)6-12(23-4)17(8)16(20)13-10(21-2)7-11(22-3)14(18)15(13)24-17/h6-8H,5H2,1-4H3",DDUHZTYCFQRHIY-UHFFFAOYSA-N,?,,"HANSCH,C ET AL. (1995)",2.18
101459,126-72-7,126-72-7,[H]C([H])(Br)C([H])(Br)C([H])([H])OP(=O)(OC([H])([H])C([H])(Br)C([H])([H])Br)OC([H])([H])C([H])(Br)C([H])([H])Br,"TRIS(2,3-DIBROMOPROPYL) PHOSPHATE","Tris(2,3-dibromopropyl) phosphate","tris(2,3-dibromopropyl) phosphate",6093,DTXSID5021413,O=P(OCC(Br)CBr)(OCC(Br)CBr)OCC(Br)CBr,"InChI=1S/C9H15Br6O4P/c10-1-7(13)4-17-20(16,18-5-8(14)2-11)19-6-9(15)3-12/h7-9H,1-6H2",PQYJRMFWJJONBO-UHFFFAOYSA-N,?,,SANGSTER (1994); average,4.29
101460,126-73-8,126-73-8,[H]C([H])([H])C([H])([H])C([H])([H])C([H])([H])OP(=O)(OC([H])([H])C([H])([H])C([H])([H])C([H])([H])[H])OC([H])([H])C([H])([H])C([H])([H])C([H])([H])[H],TRIBUTYLPHOSPHATE,Tributyl phosphate,tributyl phosphate,6094,DTXSID3021986,CCCCOP(=O)(OCCCC)OCCCC,"InChI=1S/C12H27O4P/c1-4-7-10-14-17(13,15-11-8-5-2)16-12-9-6-3/h4-12H2,1-3H3",STCOOQWBFONSKY-UHFFFAOYSA-N,?,,"HANSCH,C ET AL. (1995)",4.0
101461,126-98-7,126-98-7,[H]C([H])=C(C#N)C([H])([H])[H],METHACRYLONITRILE,Methacrylonitrile,2-methylprop-2-enenitrile,6095,DTXSID1024176,CC(=C)C#N,"InChI=1S/C4H5N/c1-4(2)3-5/h1H2,2H3",GYCMBHHDWRMZGG-UHFFFAOYSA-N,?,,"TANII,H & HASHIMOTO,K (1984)",0.68
101463,127-07-1,127-07-1,[H]ON([H])C(=O)N([H])[H],HYDROXYUREA,Hydroxyurea,1-hydroxyurea,6097,DTXSID6025438,NC(=O)NO,"InChI=1S/CH4N2O2/c2-1(4)3-5/h5H,(H3,2,3,4)",VSNHCAURESNICA-UHFFFAOYSA-N,?,,"HANSCH,C ET AL. (1995)",-1.8
101464,127-18-4,127-18-4,ClC(Cl)=C(Cl)Cl,TETRACHLOROETHENE,Tetrachloroethylene,tetrachloroethene,6098,DTXSID2021319,ClC(Cl)=C(Cl)Cl,InChI=1S/C2Cl4/c3-1(4)2(5)6,CYTYCFOTNPOANT-UHFFFAOYSA-N,?,,"HANSCH,C ET AL. (1995)",3.4
101465,127-19-5,127-19-5,[H]C([H])([H])C(=O)N(C([H])([H])[H])C([H])([H])[H],"N,N'-DIMETHYLACETAMIDE","N,N-Dimethylacetamide","N,N-dimethylacetamide",6099,DTXSID5020499,CC(=O)N(C)C,InChI=1S/C4H9NO/c1-4(6)5(2)3/h1-3H3,FXHOOIRPVKKKFG-UHFFFAOYSA-N,?,,"HANSCH,C ET AL. (1995)",-0.77
101467,127-41-3,127-41-3,[H]C1=C(C([H])([H])[H])C([H])(/C([H])=C(\[H])C(=O)C([H])([H])[H])C(C([H])([H])[H])(C([H])([H])[H])C([H])([H])C1([H])[H],ALPHA-IONONE,alpha-Ionone,"(3E)-4-(2,6,6-trimethylcyclohex-2-en-1-yl)but-3-en-2-one",6101,DTXSID0035160,CC1=CCCC(C)(C)C1C=CC(C)=O,"InChI=1S/C13H20O/c1-10-6-5-9-13(3,4)12(10)8-7-11(2)14/h6-8,12H,5,9H2,1-4H3/b8-7+",UZFLPKAIBPNNCA-BQYQJAHWSA-N,?,,"GRIFFIN,S ET AL. (1999)",3.85
101468,127-63-9,127-63-9,[H]C1=C([H])C([H])=C(S(=O)(=O)C2=C([H])C([H])=C([H])C([H])=C2[H])C([H])=C1[H],DIPHENYL SULFONE,Diphenylsulfone,diphenyl sulfone,6102,DTXSID6041892,O=S(=O)(c1ccccc1)c1ccccc1,"InChI=1S/C12H10O2S/c13-15(14,11-7-3-1-4-8-11)12-9-5-2-6-10-12/h1-10H",KZTYYGOKRVBIMI-UHFFFAOYSA-N,?,,"HANSCH,C ET AL. (1995)",2.4
101469,127-68-4,127-68-4,[H]OS(=O)(=O)C1=C([H])C([N+](=O)[O-])=C([H])C([H])=C1[H],"M-NITROBENZENESULFONIC ACID, SODIUM SALT",Sodium 3-nitrobenzenesulfonate,sodium 3-nitrobenzenesulfonate,6103,DTXSID2027048,[O-][N+](=O)c1cc(ccc1)S(O)(=O)=O,"InChI=1S/C6H5NO5S/c8-7(9)5-2-1-3-6(4-5)13(10,11)12/h1-4H,(H,10,11,12)",ONMOULMPIIOVTQ-UHFFFAOYSA-N,[Na+],7,SANGSTER (1994),-2.61
101471,127-77-5,127-77-5,[H]C1=C([H])C([H])=C(N([H])S(=O)(=O)C2=C([H])C([H])=C(N([H])[H])C([H])=C2[H])C([H])=C1[H],N1-PHENYLSULFANILIDE,Sulfabenz,4-amino-N-phenylbenzenesulfonamide,6105,DTXSID9046287,Nc1ccc(cc1)S(=O)(=O)Nc1ccccc1,"InChI=1S/C12H12N2O2S/c13-10-6-8-12(9-7-10)17(15,16)14-11-4-2-1-3-5-11/h1-9,14H,13H2",YBUXKQSCKVQATK-UHFFFAOYSA-N,?,,"HANSCH,C ET AL. (1995)",1.55
101472,127-79-7,127-79-7,[H]C1=C([H])C(C([H])([H])[H])=NC(N([H])S(=O)(=O)C2=C([H])C([H])=C(N([H])[H])C([H])=C2[H])=N1,SULFAMERAZINE,Sulfamerazine,4-amino-N-(4-methylpyrimidin-2-yl)benzenesulfonamide,6106,DTXSID0023612,Cc1cc[n]c(NS(=O)(=O)c2ccc(N)cc2)[n]1,"InChI=1S/C11H12N4O2S/c1-8-6-7-13-11(14-8)15-18(16,17)10-4-2-9(12)3-5-10/h2-7H,12H2,1H3,(H,13,14,15)",QPPBRPIAZZHUNT-UHFFFAOYSA-N,?,,"HANSCH,C ET AL. (1995)",0.14
101473,127-91-3,127-91-3,[H]C([H])=C1C([H])([H])C([H])([H])C2([H])C([H])([H])C1([H])C2(C([H])([H])[H])C([H])([H])[H],beta-PINENE,beta-Pinene,"6,6-dimethyl-2-methylidenebicyclo[3.1.1]heptane",6107,DTXSID7027049,CC1(C)C2CC1CCC2=C,"InChI=1S/C10H16/c1-7-4-5-8-6-9(7)10(8,2)3/h8-9H,1,4-6H2,2-3H3",WTARULDDTDQWMU-UHFFFAOYSA-N,?,,"GRIFFIN,S ET AL. (1999)",4.16
101475,128-37-0,128-37-0,[H]OC1=C(C(C([H])([H])[H])(C([H])([H])[H])C([H])([H])[H])C([H])=C(C([H])([H])[H])C([H])=C1C(C([H])([H])[H])(C([H])([H])[H])C([H])([H])[H],"2,6-DI-T-BUTYL-4-METHYLPHENOL (BHT)",Butylated hydroxytoluene,"2,6-di-tert-butyl-4-methylphenol",6109,DTXSID2020216,Cc1cc(c(O)c(c1)C(C)(C)C)C(C)(C)C,"InChI=1S/C15H24O/c1-10-8-11(14(2,3)4)13(16)12(9-10)15(5,6)7/h8-9,16H,1-7H3",NLZUEZXRPGMBCV-UHFFFAOYSA-N,?,,TSCATS,5.1
101476,128-39-2,128-39-2,[H]OC1=C(C(C([H])([H])[H])(C([H])([H])[H])C([H])([H])[H])C([H])=C([H])C([H])=C1C(C([H])([H])[H])(C([H])([H])[H])C([H])([H])[H],"2,6-DI-T-BUTYLPHENOL","2,6-Di-tert-butylphenol","2,6-di-tert-butylphenol",6110,DTXSID6027052,CC(C)(C)c1cccc(c1O)C(C)(C)C,"InChI=1S/C14H22O/c1-13(2,3)10-8-7-9-11(12(10)15)14(4,5)6/h7-9,15H,1-6H3",DKCPKDPYUFEZCP-UHFFFAOYSA-N,?,,"HANSCH,C ET AL. (1995)",4.92
101477,128-95-0,128-95-0,[H]C1=C([H])C2=C(C(=O)C3=C(N([H])[H])C([H])=C([H])C(N([H])[H])=C3C2=O)C([H])=C1[H],DISPERSE VIOLET 1,"1,4-Diaminoanthraquinone","1,4-diaminoanthracene-9,10-dione",6111,DTXSID2041252,Nc1ccc(N)c2c1C(=O)c1ccccc1C2=O,"InChI=1S/C14H10N2O2/c15-9-5-6-10(16)12-11(9)13(17)7-3-1-2-4-8(7)14(12)18/h1-6H,15-16H2",FBMQNRKSAWNXBT-UHFFFAOYSA-N,?,,"BAUGHMAN,GL & WEBER,EJ (1991)",3.0
101479,129-03-3,129-03-3,[H]C1=C([H])C([H])=C2C(=C1[H])C([H])=C([H])C1=C([H])C([H])=C([H])C([H])=C1C2=C1C([H])([H])C([H])([H])N(C([H])([H])[H])C([H])([H])C1([H])[H],CYPROHEPTADINE,Cyproheptadine,"4-(5H-dibenzo[a,d][7]annulen-5-ylidene)-1-methylpiperidine",6113,DTXSID8022872,CN1CCC(CC1)=C1c2ccccc2C=Cc2ccccc21,"InChI=1S/C21H21N/c1-22-14-12-18(13-15-22)21-19-8-4-2-6-16(19)10-11-17-7-3-5-9-20(17)21/h2-11H,12-15H2,1H3",JJCFRYNCJDLXIK-UHFFFAOYSA-N,?,,SANGSTER (1993),4.69
101480,129-20-4,129-20-4,[H]OC1=C([H])C([H])=C(N2C(=O)C([H])(C([H])([H])C([H])([H])C([H])([H])C([H])([H])[H])C(=O)N2C2=C([H])C([H])=C([H])C([H])=C2[H])C([H])=C1[H],OXYPHENBUTAZONE,Oxyphenbutazone,"4-butyl-1-(4-hydroxyphenyl)-2-phenylpyrazolidine-3,5-dione",6114,DTXSID1045291,CCCCC1C(=O)N(c2ccccc2)N(c2ccc(O)cc2)C1=O,"InChI=1S/C19H20N2O3/c1-2-3-9-17-18(23)20(14-7-5-4-6-8-14)21(19(17)24)15-10-12-16(22)13-11-15/h4-8,10-13,17,22H,2-3,9H2,1H3",HFHZKZSRXITVMK-UHFFFAOYSA-N,?,,"HANSCH,C ET AL. (1995)",2.72
101481,129-43-1,129-43-1,[H]OC1=C2C(=O)C3=C([H])C([H])=C([H])C([H])=C3C(=O)C2=C([H])C([H])=C1[H],1-HYDROXYANTHRAQUINONE,1-Hydroxyanthraquinone,"1-hydroxyanthracene-9,10-dione",6115,DTXSID1020722,Oc1cccc2c1C(=O)c1ccccc1C2=O,"InChI=1S/C14H8O3/c15-11-7-3-6-10-12(11)14(17)9-5-2-1-4-8(9)13(10)16/h1-7,15H",BTLXPCBPYBNQNR-UHFFFAOYSA-N,?,,"BROOKE,D ET AL. (1990)",3.52
101483,129-81-7,129-81-7,[H]C1=C([H])C([H])=C(N2C(=O)C(I)=C(C([H])([H])[H])N2C([H])([H])[H])C([H])=C1[H],4-IODOANTIPYRINE,Iodoantipyrine,"4-iodo-1,5-dimethyl-2-phenyl-1,2-dihydro-3H-pyrazol-3-one",6117,DTXSID7046047,CN1C(C)=C(I)C(=O)N1c1ccccc1,"InChI=1S/C11H11IN2O/c1-8-10(12)11(15)14(13(8)2)9-6-4-3-5-7-9/h3-7H,1-2H3",ZZOBLCHCPLOXCE-UHFFFAOYSA-N,?,,"HANSCH,C ET AL. (1995)",1.27
101484,130-13-2,130-13-2,[H]OS(=O)(=O)C1=C([H])C([H])=C(N([H])[H])C2=C([H])C([H])=C([H])C([H])=C21,"1-NAPHTHALENESULFONIC ACID, 4-AMINO-,SODIUM SALT",4-Amino-1-naphthalenesulfonic acid sodium salt,sodium 4-aminonaphthalene-1-sulfonate,6118,DTXSID0059611,Nc1ccc(c2ccccc21)S(O)(=O)=O,"InChI=1S/C10H9NO3S/c11-9-5-6-10(15(12,13)14)8-4-2-1-3-7(8)9/h1-6H,11H2,(H,12,13,14)",NRZRRZAVMCAKEP-UHFFFAOYSA-N,[Na+],7,POMONA (1987),-2.34
101485,130-15-4,130-15-4,[H]C1=C([H])C(=O)C2=C([H])C([H])=C([H])C([H])=C2C1=O,"1,4-NAPHTHOQUINONE","1,4-Naphthoquinone","naphthalene-1,4-dione",6119,DTXSID5040704,O=C1C=CC(=O)c2ccccc12,InChI=1S/C10H6O2/c11-9-5-6-10(12)8-4-2-1-3-7(8)9/h1-6H,FRASJONUBLZVQX-UHFFFAOYSA-N,?,,"HANSCH,C ET AL. (1995)",1.71
101488,131-03-3|146-48-5,131-03-3|146-48-5,[H]OC1([H])C([H])([H])C([H])([H])C2([H])C([H])([H])N3C([H])([H])C([H])([H])C4=C(N([H])C5=C4C([H])=C([H])C([H])=C5[H])C3([H])C([H])([H])C2([H])C1([H])C(=O)OC([H])([H])[H],"alpha-Yohimbine, APHRODINE",Rauwolscine,"methyl (16beta,17alpha,20alpha)-17-hydroxyyohimban-16-carboxylate",6122|6219,DTXSID2045608|DTXSID9040130,COC(=O)C1C(O)CCC2CN3CCc4c5ccccc5[nH]c4C3CC21,"InChI=1S/C21H26N2O3/c1-26-21(25)19-15-10-17-20-14(13-4-2-3-5-16(13)22-20)8-9-23(17)11-12(15)6-7-18(19)24/h2-5,12,15,17-19,22,24H,6-11H2,1H3",BLGXFZZNTVWLAY-UHFFFAOYSA-N,?,,"HANSCH,C ET AL. (1995)",2.54
101489,131-11-3,131-11-3,[H]C1=C([H])C([H])=C(C(=O)OC([H])([H])[H])C(C(=O)OC([H])([H])[H])=C1[H],DIMETHYL PHTHALATE,Dimethyl phthalate,"dimethyl benzene-1,2-dicarboxylate",6123,DTXSID3022455,COC(=O)c1ccccc1C(=O)OC,"InChI=1S/C10H10O4/c1-13-9(11)7-5-3-4-6-8(7)10(12)14-2/h3-6H,1-2H3",NIQCNGHVCWTJSM-UHFFFAOYSA-N,?,,"ELLINGTON,JT & FLOYD,TL (1996)",1.6
101490,131-16-8,131-16-8,[H]C1=C([H])C([H])=C(C(=O)OC([H])([H])C([H])([H])C([H])([H])[H])C(C(=O)OC([H])([H])C([H])([H])C([H])([H])[H])=C1[H],DIPROPYL PHTHALATE,Dipropyl phthalate,"dipropyl benzene-1,2-dicarboxylate",6124,DTXSID5031133,CCCOC(=O)c1ccccc1C(=O)OCCC,"InChI=1S/C14H18O4/c1-3-9-17-13(15)11-7-5-6-8-12(11)14(16)18-10-4-2/h5-8H,3-4,9-10H2,1-2H3",MQHNKCZKNAJROC-UHFFFAOYSA-N,?,,"HANSCH,C ET AL. (1995)",3.27
101492,131-18-0,131-18-0,[H]C1=C([H])C([H])=C(C(=O)OC([H])([H])C([H])([H])C([H])([H])C([H])([H])C([H])([H])[H])C(C(=O)OC([H])([H])C([H])([H])C([H])([H])C([H])([H])C([H])([H])[H])=C1[H],DI-N-AMYL PHTHALATE,Dipentyl phthalate,"dipentyl benzene-1,2-dicarboxylate",6126,DTXSID5031131,CCCCCOC(=O)c1ccccc1C(=O)OCCCCC,"InChI=1S/C18H26O4/c1-3-5-9-13-21-17(19)15-11-7-8-12-16(15)18(20)22-14-10-6-4-2/h7-8,11-12H,3-6,9-10,13-14H2,1-2H3",IPKKHRVROFYTEK-UHFFFAOYSA-N,?,,"ELLINGTON,JT & FLOYD,TL (1996)",5.62
101493,131-57-7,131-57-7,[H]OC1=C([H])C(OC([H])([H])[H])=C([H])C([H])=C1C(=O)C1=C([H])C([H])=C([H])C([H])=C1[H],OXYBENZONE,2-Hydroxy-4-methoxybenzophenone,(2-hydroxy-4-methoxyphenyl)(phenyl)methanone,6127,DTXSID3022405,COc1cc(O)c(cc1)C(=O)c1ccccc1,"InChI=1S/C14H12O3/c1-17-11-7-8-12(13(15)9-11)14(16)10-5-3-2-4-6-10/h2-9,15H,1H3",DXGLGDHPHMLXJC-UHFFFAOYSA-N,?,,CHEMICALS INSPECTION AND TESTING INSTITU (1992),3.79
101494,131-89-5,131-89-5,[H]OC1=C(C2([H])C([H])([H])C([H])([H])C([H])([H])C([H])([H])C2([H])[H])C([H])=C([N+](=O)[O-])C([H])=C1[N+](=O)[O-],"2-CYCLOHEXYL-4,6-DINITROPHENOL",Dinex,"2-cyclohexyl-4,6-dinitrophenol",6128,DTXSID4024064,[O-][N+](=O)c1cc(cc(C2CCCCC2)c1O)[N+]([O-])=O,"InChI=1S/C12H14N2O5/c15-12-10(8-4-2-1-3-5-8)6-9(13(16)17)7-11(12)14(18)19/h6-8,15H,1-5H2",QJYHUJAGJUHXJN-UHFFFAOYSA-N,?,,"ELLINGTON,JT & STANCIL,FE (1988)",4.12
101496,132-22-9,132-22-9,[H]C1=NC(C([H])(C2=C([H])C([H])=C(Cl)C([H])=C2[H])C([H])([H])C([H])([H])N(C([H])([H])[H])C([H])([H])[H])=C([H])C([H])=C1[H],CHLORPHENIRAMINE,Chlorpheniramine,"3-(4-chlorophenyl)-N,N-dimethyl-3-(pyridin-2-yl)propan-1-amine",6130,DTXSID0022804,CN(C)CCC(c1cccc[n]1)c1ccc(Cl)cc1,"InChI=1S/C16H19ClN2/c1-19(2)12-10-15(16-5-3-4-11-18-16)13-6-8-14(17)9-7-13/h3-9,11,15H,10,12H2,1-2H3",SOYKEARSMXGVTM-UHFFFAOYSA-N,?,,"HANSCH,C ET AL. (1995)",3.38
101497,132-53-6,132-53-6,[H]OC1=C(N=O)C([H])=C([H])C2=C([H])C([H])=C([H])C([H])=C12,2-NITROSO-1-NAPHTHOL,"1-Naphthalenol, 2-nitroso-",2-nitrosonaphthalen-1-ol,6131,DTXSID4059625,Oc1c2ccccc2ccc1N=O,"InChI=1S/C10H7NO2/c12-10-8-4-2-1-3-7(8)5-6-9(10)11-13/h1-6,12H",SYUYTOYKQOAVDW-UHFFFAOYSA-N,?,,"HANSCH,C ET AL. (1995)",2.46
101498,132-64-9,132-64-9,[H]C1=C([H])C([H])=C2C(=C1[H])OC1=C([H])C([H])=C([H])C([H])=C12,DIBENZOFURAN,Dibenzofuran,"dibenzo[b,d]furan",6132,DTXSID2021993,c1cccc2oc3ccccc3c21,InChI=1S/C12H8O/c1-3-7-11-9(5-1)10-6-2-4-8-12(10)13-11/h1-8H,TXCDCPKCNAJMEE-UHFFFAOYSA-N,?,,"HANSCH,C ET AL. (1995)",4.12
101500,132-86-5,132-86-5,[H]OC1=C([H])C2=C([H])C([H])=C([H])C([H])=C2C(O[H])=C1[H],"NAPHTHALENE-1,3-DIOL","1,3-Naphthalenediol",,6134,DTXSID8059631,Oc1cc2ccccc2c(O)c1,"InChI=1S/C10H8O2/c11-8-5-7-3-1-2-4-9(7)10(12)6-8/h1-6,11-12H",XOOMNEFVDUTJPP-UHFFFAOYSA-N,?,,"HANSCH,C ET AL. (1995)",1.97
101501,133-06-2,133-06-2,[H]C1=C([H])C([H])([H])C2([H])C(=O)N(SC(Cl)(Cl)Cl)C(=O)C2([H])C1([H])[H],CAPTAN,Captan,"2-[(trichloromethyl)sulfanyl]-3a,4,7,7a-tetrahydro-1H-isoindole-1,3(2H)-dione",6135,DTXSID9020243,O=C1C2CC=CCC2C(=O)N1SC(Cl)(Cl)Cl,"InChI=1S/C9H8Cl3NO2S/c10-9(11,12)16-13-7(14)5-3-1-2-4-6(5)8(13)15/h1-2,5-6H,3-4H2",LDVVMCZRFWMZSG-UHFFFAOYSA-N,?,,"TOMLIN,C (1997)",2.8
101502,133-07-3,133-07-3,[H]C1=C([H])C([H])=C2C(=O)N(SC(Cl)(Cl)Cl)C(=O)C2=C1[H],FOLPET,Folpet,"2-[(trichloromethyl)sulfanyl]-1H-isoindole-1,3(2H)-dione",6136,DTXSID0021385,O=C1c2ccccc2C(=O)N1SC(Cl)(Cl)Cl,"InChI=1S/C9H4Cl3NO2S/c10-9(11,12)16-13-7(14)5-3-1-2-4-6(5)8(13)15/h1-4H",HKIOYBQGHSTUDB-UHFFFAOYSA-N,?,,"HANSCH,C ET AL. (1995)",2.85
101504,133-16-4,133-16-4,[H]C1=C([H])C(N([H])[H])=C([H])C(Cl)=C1C(=O)OC([H])([H])C([H])([H])N(C([H])([H])C([H])([H])[H])C([H])([H])C([H])([H])[H],CHLOROPROCAINE,Chloroprocaine,2-(diethylamino)ethyl 4-amino-2-chlorobenzoate,6138,DTXSID8022799,CCN(CCOC(=O)c1ccc(N)cc1Cl)CC,"InChI=1S/C13H19ClN2O2/c1-3-16(4-2)7-8-18-13(17)11-6-5-10(15)9-12(11)14/h5-6,9H,3-4,7-8,15H2,1-2H3",VDANGULDQQJODZ-UHFFFAOYSA-N,?,,"HANSCH,C ET AL. (1995)",2.86
101505,133-32-4,133-32-4,[H]OC(=O)C([H])([H])C([H])([H])C([H])([H])C1=C([H])N([H])C2=C([H])C([H])=C([H])C([H])=C21,3-INDOLEBUTYRIC ACID,Indole-3-butyric acid,4-(1H-indol-3-yl)butanoic acid,6139,DTXSID8032623,OC(=O)CCCc1c[nH]c2ccccc12,"InChI=1S/C12H13NO2/c14-12(15)7-3-4-9-8-13-11-6-2-1-5-10(9)11/h1-2,5-6,8,13H,3-4,7H2,(H,14,15)",JTEDVYBZBROSJT-UHFFFAOYSA-N,?,,"HANSCH,C ET AL. (1995)",2.3
101507,133-67-5,133-67-5,[H]C1=C(Cl)C(S(=O)(=O)N([H])[H])=C([H])C2=C1N([H])C([H])(C([H])(Cl)Cl)N([H])S2(=O)=O,TRICHLORMETHIAZIDE,Trichlormethiazide,"6-chloro-3-(dichloromethyl)-3,4-dihydro-2H-1,2,4-benzothiadiazine-7-sulfonamide 1,1-dioxide",6140,DTXSID7023699,NS(=O)(=O)c1cc2c(cc1Cl)NC(NS2(=O)=O)C(Cl)Cl,"InChI=1S/C8H8Cl3N3O4S2/c9-3-1-4-6(2-5(3)19(12,15)16)20(17,18)14-8(13-4)7(10)11/h1-2,7-8,13-14H,(H2,12,15,16)",LMJSLTNSBFUCMU-UHFFFAOYSA-N,?,,SANGSTER (1994),0.62
101509,134-20-3,134-20-3,[H]C1=C([H])C([H])=C(N([H])[H])C(C(=O)OC([H])([H])[H])=C1[H],METHYL ANTHRANILATE,Methyl 2-aminobenzoate,methyl 2-aminobenzoate,6142,DTXSID6025567,COC(=O)c1ccccc1N,"InChI=1S/C8H9NO2/c1-11-8(10)6-4-2-3-5-7(6)9/h2-5H,9H2,1H3",VAMXMNNIEUEQDV-UHFFFAOYSA-N,?,,"HANSCH,C ET AL. (1995)",1.88
101510,134-32-7,134-32-7,[H]C1=C([H])C2=C([H])C([H])=C([H])C(N([H])[H])=C2C([H])=C1[H],1-NAPHTHYLAMINE,1-Naphthylamine,naphthalen-1-amine,6143,DTXSID7020920,Nc1cccc2ccccc21,"InChI=1S/C10H9N/c11-10-7-3-5-8-4-1-2-6-9(8)10/h1-7H,11H2",RUFPHBVGCFYCNW-UHFFFAOYSA-N,?,,"HANSCH,C ET AL. (1995)",2.25
101511,134-55-4,NOCAS_870484,[H]C1=C([H])C([H])=C(OC(=O)C2=C([H])C([H])=C([H])C([H])=C2OC(=O)C([H])([H])[H])C([H])=C1[H],"BENZOIC ACID, 2-(ACETYLOXY)-, PHENYL ESTER",,,6144,DTXSID20870484,CC(=O)Oc1ccccc1C(=O)Oc1ccccc1,"InChI=1S/C15H12O4/c1-11(16)18-14-10-6-5-9-13(14)15(17)19-12-7-3-2-4-8-12/h2-10H,1H3",PSBAIJVSCTZDDB-UHFFFAOYSA-N,?,,"NIELSEN,NM & BUNDGAARD,H (1989)",2.88
101513,134-62-3,134-62-3,[H]C1=C([H])C(C(=O)N(C([H])([H])C([H])([H])[H])C([H])([H])C([H])([H])[H])=C([H])C(C([H])([H])[H])=C1[H],"DEET [N,N,-DIET-3-ME BENZAMIDE]",DEET,"N,N-diethyl-3-methylbenzamide",6146,DTXSID2021995,Cc1cc(ccc1)C(=O)N(CC)CC,"InChI=1S/C12H17NO/c1-4-13(5-2)12(14)11-8-6-7-10(3)9-11/h6-9H,4-5H2,1-3H3",MMOXZBCLCQITDF-UHFFFAOYSA-N,?,,SANGSTER (1993),2.18
101514,134-81-6,134-81-6,[H]C1=C([H])C([H])=C(C(=O)C(=O)C2=C([H])C([H])=C([H])C([H])=C2[H])C([H])=C1[H],BENZIL,"1,2-Diphenylethanedione","1,2-diphenylethane-1,2-dione",6147,DTXSID3044380,O=C(c1ccccc1)C(=O)c1ccccc1,InChI=1S/C14H10O2/c15-13(11-7-3-1-4-8-11)14(16)12-9-5-2-6-10-12/h1-10H,WURBFLDFSFBTLW-UHFFFAOYSA-N,?,,"HANSCH,C ET AL. (1995)",3.38
101515,134-98-5,134-98-5,[H]C1=C([H])C(C([H])([H])[H])=C(C([H])([H])[H])C(N([H])C(=O)C([H])([H])[H])=C1[H],"2,3-DIMETHYLACETANILIDE","Acetamide, N-(2,3-dimethylphenyl)- (9CI)","N-(2,3-Dimethylphenyl)acetamide",6148,DTXSID60158455,Cc1cccc(NC(C)=O)c1C,"InChI=1S/C10H13NO/c1-7-5-4-6-10(8(7)2)11-9(3)12/h4-6H,1-3H3,(H,11,12)",SRSHEJADOPNDDF-UHFFFAOYSA-N,?,,"NAKAGAWA,Y ET AL. (1992)",1.35
101517,135-02-4,135-02-4,[H]C(=O)C1=C([H])C([H])=C([H])C([H])=C1OC([H])([H])[H],"BENZALDEHYDE, 2-METHOXY-",2-Methoxybenzaldehyde,2-methoxybenzaldehyde,6150,DTXSID1051690,COc1ccccc1C=O,"InChI=1S/C8H8O2/c1-10-8-5-3-2-4-7(8)6-9/h2-6H,1H3",PKZJLOCLABXVMC-UHFFFAOYSA-N,?,,"BAZACO,JF & COCA,CM (1989)",1.72
101518,135-07-9,135-07-9,[H]C1=C(Cl)C(S(=O)(=O)N([H])[H])=C([H])C2=C1N([H])C([H])(C([H])([H])Cl)N(C([H])([H])[H])S2(=O)=O,2-METHYL-3-CHLOROMETHYLHYDROCHLOROTHIAZIDE,Methyclothiazide,"6-chloro-3-(chloromethyl)-2-methyl-3,4-dihydro-2H-1,2,4-benzothiadiazine-7-sulfonamide 1,1-dioxide",6151,DTXSID6023313,CN1C(CCl)Nc2cc(Cl)c(cc2S1(=O)=O)S(N)(=O)=O,"InChI=1S/C9H11Cl2N3O4S2/c1-14-9(4-10)13-6-2-5(11)7(19(12,15)16)3-8(6)20(14,17)18/h2-3,9,13H,4H2,1H3,(H2,12,15,16)",CESYKOGBSMNBPD-UHFFFAOYSA-N,?,,"HANSCH,C ET AL. (1995)",1.42
101519,135-09-1,135-09-1,[H]C1=C(C(F)(F)F)C(S(=O)(=O)N([H])[H])=C([H])C2=C1N([H])C([H])([H])N([H])S2(=O)=O,HYDROFLUMETHIAZIDE,Hydroflumethiazide,"6-(trifluoromethyl)-3,4-dihydro-2H-1,2,4-benzothiadiazine-7-sulfonamide 1,1-dioxide",6152,DTXSID3023132,NS(=O)(=O)c1cc2c(cc1C(F)(F)F)NCNS2(=O)=O,"InChI=1S/C8H8F3N3O4S2/c9-8(10,11)4-1-5-7(2-6(4)19(12,15)16)20(17,18)14-3-13-5/h1-2,13-14H,3H2,(H2,12,15,16)",DMDGGSIALPNSEE-UHFFFAOYSA-N,?,,"HANSCH,C ET AL. (1995)",0.36
101521,135-48-8,135-48-8,[H]C1=C([H])C2=C([H])C3=C([H])C4=C(C([H])=C5C([H])=C([H])C([H])=C([H])C5=C4[H])C([H])=C3C([H])=C2C([H])=C1[H],PENTACENE,Pentacene,PENTACENE,6154,DTXSID7059648,c1c2cc3cc4ccccc4cc3cc2cc2ccccc21,InChI=1S/C22H14/c1-2-6-16-10-20-14-22-12-18-8-4-3-7-17(18)11-21(22)13-19(20)9-15(16)5-1/h1-14H,SLIUAWYAILUBJU-UHFFFAOYSA-N,?,,"DE VOOGT,P ET AL. (1990)",7.11
101522,135-67-1,135-67-1,[H]C1=C([H])C([H])=C2C(=C1[H])OC1=C([H])C([H])=C([H])C([H])=C1N2[H],PHENOXAZINE,Phenoxazine,10H-Phenoxazine,6155,DTXSID10159199,c1cccc2Nc3ccccc3Oc21,"InChI=1S/C12H9NO/c1-3-7-11-9(5-1)13-10-6-2-4-8-12(10)14-11/h1-8,13H",TZMSYXZUNZXBOL-UHFFFAOYSA-N,?,,"HANSCH,C ET AL. (1995)",3.85
101523,135-88-6,135-88-6,[H]C1=C([H])C([H])=C(N([H])C2=C([H])C3=C([H])C([H])=C([H])C([H])=C3C([H])=C2[H])C([H])=C1[H],N-PHENYL-2-NAPHTHYLAMINE,N-Phenyl-2-naphthylamine,N-phenylnaphthalen-2-amine,6156,DTXSID4021131,c1c(ccc2ccccc21)Nc1ccccc1,"InChI=1S/C16H13N/c1-2-8-15(9-3-1)17-16-11-10-13-6-4-5-7-14(13)12-16/h1-12,17H",KEQFTVQCIQJIQW-UHFFFAOYSA-N,?,,"HANSCH,C ET AL. (1995)",4.38