ChemID,source_casrn,CAS,SMILES,NAME,preferred_name,iupac,MPID,dsstox_substance_id,Canonical_QSARr,InChI_Code_QSARr,InChI Key_QSARr,Salt_Solvent,Salt_Solvent_ID,Kow Reference,LogP
102770,654-19-3,654-19-3,[H]OC(=O)C([H])([H])C([H])([H])C([H])([H])N1N=NC2=C([H])C([H])=C([H])C([H])=C21,1-(3-CARBOXYPROPYL)BENZOTRIAZOLE,,,7355,DTXSID60875918,OC(=O)CCC[n]1[n][n]c2ccccc12,"InChI=1S/C10H11N3O2/c14-10(15)6-3-7-13-9-5-2-1-4-8(9)11-12-13/h1-2,4-5H,3,6-7H2,(H,14,15)",HGBQMURNSXYASM-UHFFFAOYSA-N,?,,"HANSCH,C ET AL. (1995)",0.01
102773,656-31-5,656-31-5,[H]C1=C([H])C([H])=C(N([H])C(=O)N([H])[H])C(F)=C1[H],O-FLUOROPHENYLUREA,(2-Fluorophenyl)urea,(2-Fluorophenyl)urea,7357,DTXSID00215854,NC(=O)Nc1ccccc1F,"InChI=1S/C7H7FN2O/c8-5-3-1-2-4-6(5)10-7(9)11/h1-4H,(H3,9,10,11)",PAWVOCWEWJXILY-UHFFFAOYSA-N,?,,"HANSCH,C ET AL. (1995)",0.88
102774,656-49-5,656-49-5,[H]C1=C(Cl)C([H])=C2C(=C1[H])N=C(C(F)(F)F)N2[H],2-CF3-5-CHLOROBENZIMIDAZOLE,"Benzimidazole, 5-chloro-2-(trifluoromethyl)-",6-chloro-2-(trifluoromethyl)-1H-benzimidazole,7358,DTXSID80215857,FC(F)(F)c1[nH]c2cc(Cl)ccc2[n]1,"InChI=1S/C8H4ClF3N2/c9-4-1-2-5-6(3-4)14-7(13-5)8(10,11)12/h1-3H,(H,13,14)",OQKQEDXERMELRT-UHFFFAOYSA-N,?,,"HANSCH,C ET AL. (1995)",3.39
102775,658-43-5,658-43-5,[H]C1=C([H])C([H])=C(N([H])S(=O)(=O)C([H])(F)F)C([H])=C1[H],DIFLUOROMETHANESULFONANILIDE,PUBCHEM_13571972,C7H7F2NO2S,7359,DTXSID30544109,O=S(=O)(Nc1ccccc1)C(F)F,"InChI=1S/C7H7F2NO2S/c8-7(9)13(11,12)10-6-4-2-1-3-5-6/h1-5,7,10H",UUMQZWFFKCJTJB-UHFFFAOYSA-N,?,,"HANSCH,C ET AL. (1995)",1.95
102777,659-30-3,659-30-3,[H]C1=C([H])C(N([H])C(=O)N([H])[H])=C([H])C([H])=C1F,P-FLUOROPHENYLUREA,"Urea, 1-(p-fluorophenyl)-",(4-Fluorophenyl)urea,7361,DTXSID20216106,NC(=O)Nc1ccc(F)cc1,"InChI=1S/C7H7FN2O/c8-5-1-3-6(4-2-5)10-7(9)11/h1-4H,(H3,9,10,11)",IQZBVVPYTDHTIP-UHFFFAOYSA-N,?,,"HANSCH,C ET AL. (1995)",1.04
102778,660-88-8,660-88-8,[H]OC(=O)C([H])([H])C([H])([H])C([H])([H])C([H])([H])N([H])[H],5-AMINOPENTANOIC ACID,5-Aminovaleric acid,5-Aminopentanoic acid,7362,DTXSID70216212,NCCCCC(O)=O,"InChI=1S/C5H11NO2/c6-4-2-1-3-5(7)8/h1-4,6H2,(H,7,8)",JJMDCOVWQOJGCB-UHFFFAOYSA-N,?,,"HANSCH,C ET AL. (1995)",-2.63
102779,664-95-9,664-95-9,[H]C1=C([H])C(S(=O)(=O)N([H])C(=O)N([H])C2([H])C([H])([H])C([H])([H])C([H])([H])C([H])([H])C2([H])[H])=C([H])C([H])=C1C([H])([H])[H],TOLCYCLAMIDE,Glycyclamide,N-(cyclohexylcarbamoyl)-4-methylbenzenesulfonamide,7363,DTXSID5046273,Cc1ccc(cc1)S(=O)(=O)NC(=O)NC1CCCCC1,"InChI=1S/C14H20N2O3S/c1-11-7-9-13(10-8-11)20(18,19)16-14(17)15-12-5-3-2-4-6-12/h7-10,12H,2-6H2,1H3,(H2,15,16,17)",RIGBPMDIGYBTBJ-UHFFFAOYSA-N,?,,SANGSTER (1993),2.9
102781,671-03-4,671-03-4,[H]C1=C(OC(=O)N([H])C([H])([H])[H])C(C([H])([H])[H])=C([H])C(C([H])([H])[H])=C1C([H])([H])[H],"2,4,5-TRIMEPH N-ME CARBAMATE",,,7365,DTXSID10876516,Cc1cc(OC(=O)NC)c(C)cc1C,"InChI=1S/C11H15NO2/c1-7-5-9(3)10(6-8(7)2)14-11(13)12-4/h5-6H,1-4H3,(H,12,13)",LHRJEMRRXDUAAG-UHFFFAOYSA-N,?,,"HANSCH,C ET AL. (1995)",2.52
102782,671-16-9,671-16-9,[H]C1=C([H])C(C([H])([H])N([H])N([H])C([H])([H])[H])=C([H])C([H])=C1C(=O)N([H])C([H])(C([H])([H])[H])C([H])([H])[H],PROCARBAZINE,Procarbazine,4-[(2-methylhydrazinyl)methyl]-N-(propan-2-yl)benzamide,7366,DTXSID4021189,CNNCc1ccc(cc1)C(=O)NC(C)C,"InChI=1S/C12H19N3O/c1-9(2)15-12(16)11-6-4-10(5-7-11)8-14-13-3/h4-7,9,13-14H,8H2,1-3H3,(H,15,16)",CPTBDICYNRMXFX-UHFFFAOYSA-N,?,,"HANSCH,C ET AL. (1995)",0.06
102783,672-66-2,672-66-2,[H]C1=C([H])C([H])=C(P(C([H])([H])[H])C([H])([H])[H])C([H])=C1[H],(DIMETHYL)-PHENYLPHOSPHINE,Dimethylphenylphosphine,dimethyl-phenylphosphane,7367,DTXSID70217481,CP(C)c1ccccc1,"InChI=1S/C8H11P/c1-9(2)8-6-4-3-5-7-8/h3-7H,1-2H3",HASCQPSFPAKVEK-UHFFFAOYSA-N,?,,"HANSCH,C ET AL. (1995)",2.57
102785,673-31-4,673-31-4,[H]C1=C([H])C([H])=C(C([H])([H])C([H])([H])C([H])([H])OC(=O)N([H])[H])C([H])=C1[H],"CARBAMIC ACID, 3-PHENYLPROPYL ESTER",Phenprobamate,3-phenylpropyl carbamate,7369,DTXSID2046464,NC(=O)OCCCc1ccccc1,"InChI=1S/C10H13NO2/c11-10(12)13-8-4-7-9-5-2-1-3-6-9/h1-3,5-6H,4,7-8H2,(H2,11,12)",CAMYKONBWHRPDD-UHFFFAOYSA-N,?,,"TANAKA,M ET AL. (1985)",1.96
102786,673-66-5,673-66-5,[H]N1C(=O)C([H])([H])C([H])([H])C([H])([H])C([H])([H])C([H])([H])C1([H])[H],2-AZACYCLOOCTANONE,2-Azacyclooctanone,azocan-2-one,7370,DTXSID60217672,O=C1CCCCCCN1,"InChI=1S/C7H13NO/c9-7-5-3-1-2-4-6-8-7/h1-6H2,(H,8,9)",CJYXCQLOZNIMFP-UHFFFAOYSA-N,?,,"HANSCH,C ET AL. (1995)",0.24
102787,675-20-7,675-20-7,[H]N1C(=O)C([H])([H])C([H])([H])C([H])([H])C1([H])[H],DELTA-VALEROLACTAM,2-Piperidone,piperidin-2-one,7371,DTXSID1060976,O=C1CCCCN1,"InChI=1S/C5H9NO/c7-5-3-1-2-4-6-5/h1-4H2,(H,6,7)",XUWHAWMETYGRKB-UHFFFAOYSA-N,?,,"HANSCH,C ET AL. (1995)",-0.46
102790,678-39-7,678-39-7,[H]OC([H])([H])C([H])([H])C(F)(F)C(F)(F)C(F)(F)C(F)(F)C(F)(F)C(F)(F)C(F)(F)C(F)(F)F,8-2 FTOH,"1,1,2,2-Tetrahydroperfluoro-1-decanol","3,3,4,4,5,5,6,6,7,7,8,8,9,9,10,10,10-heptadecafluorodecan-1-ol",7374,DTXSID7029904,OCCC(F)(F)C(F)(F)C(F)(F)C(F)(F)C(F)(F)C(F)(F)C(F)(F)C(F)(F)F,"InChI=1S/C10H5F17O/c11-3(12,1-2-28)4(13,14)5(15,16)6(17,18)7(19,20)8(21,22)9(23,24)10(25,26)27/h28H,1-2H2",JJUBFBTUBACDHW-UHFFFAOYSA-N,?,,"CARMOSINI,N & LEE,SL (2008)",5.58
102791,680-31-9,680-31-9,[H]C([H])([H])N(C([H])([H])[H])P(=O)(N(C([H])([H])[H])C([H])([H])[H])N(C([H])([H])[H])C([H])([H])[H],HEXAMETHYLPHOSPHORAMIDE,Hexamethylphosphoramide,"N,N,N',N',N'',N''-hexamethylphosphoric triamide",7375,DTXSID6020694,CN(C)P(=O)(N(C)C)N(C)C,"InChI=1S/C6H18N3OP/c1-7(2)11(10,8(3)4)9(5)6/h1-6H3",GNOIPBMMFNIUFM-UHFFFAOYSA-N,?,,"HANSCH,C ET AL. (1995)",0.28
102792,681-57-2,681-57-2,[H]OC(=O)C([H])([H])C([H])([H])C(C(=O)O[H])(C([H])([H])[H])C([H])([H])[H],"GLUTARIC ACID, 2,2-DIMETHYL-","2,2-Dimethylpentanedioic acid","2,2-dimethylpentanedioic acid",7376,DTXSID6021585,CC(C)(CCC(O)=O)C(O)=O,"InChI=1S/C7H12O4/c1-7(2,6(10)11)4-3-5(8)9/h3-4H2,1-2H3,(H,8,9)(H,10,11)",BTUDGPVTCYNYLK-UHFFFAOYSA-N,?,,"HANSCH,C ET AL. (1995)",0.67
102795,683-72-7,683-72-7,[H]N([H])C(=O)C([H])(Cl)Cl,"ACETAMIDE, 2,2-DICHLORO-","2,2-Dichloroacetamide","2,2-dichloroacetamide",7378,DTXSID8021561,NC(=O)C(Cl)Cl,"InChI=1S/C2H3Cl2NO/c3-1(4)2(5)6/h1H,(H2,5,6)",WCGGWVOVFQNRRS-UHFFFAOYSA-N,?,,"HANSCH,C ET AL. (1995)",0.19
102796,684-16-2,684-16-2,O=C(C(F)(F)F)C(F)(F)F,HEXAFLUORO-2-PROPANONE,Hexafluoroacetone,"1,1,1,3,3,3-hexafluoropropan-2-one",7379,DTXSID9043778,O=C(C(F)(F)F)C(F)(F)F,"InChI=1S/C3F6O/c4-2(5,6)1(10)3(7,8)9",VBZWSGALLODQNC-UHFFFAOYSA-N,?,,"HANSCH,C ET AL. (1995)",1.46
102797,684-93-5,684-93-5,[H]N([H])C(=O)N(N=O)C([H])([H])[H],1-NITROSO-1-METHYLUREA,N-Nitroso-N-methylurea,1-methyl-1-nitrosourea,7380,DTXSID4021006,CN(N=O)C(N)=O,"InChI=1S/C2H5N3O2/c1-5(4-7)2(3)6/h1H3,(H2,3,6)",ZRKWMRDKSOPRRS-UHFFFAOYSA-N,?,,"HANSCH,C ET AL. (1995)",-0.03
102799,687-48-9,687-48-9,[H]C([H])([H])N(C(=O)OC([H])([H])C([H])([H])[H])C([H])([H])[H],"N,N-DIMETHYLETHYLCARBAMATE","N,N-Dimethylurethane","Ethyl N,N-dimethylcarbamate",7382,DTXSID40218829,CCOC(=O)N(C)C,"InChI=1S/C5H11NO2/c1-4-8-5(7)6(2)3/h4H2,1-3H3",SUDHEDJJFGYYPL-UHFFFAOYSA-N,?,,"HANSCH,C ET AL. (1995)",0.89
102800,688-04-0,688-04-0,[H]OC(=O)C([H])(C([H])([H])C(=O)C([H])([H])[H])C([H])([H])C([H])([H])C([H])([H])[H],"4-Oxopentanoic acid,2-propyl-",4-oxo-2-propylpentanoic acid,C8H14O3,7383,DTXSID50395655,CC(=O)CC(CCC)C(O)=O,"InChI=1S/C8H14O3/c1-3-4-7(8(10)11)5-6(2)9/h7H,3-5H2,1-2H3,(H,10,11)",HJRMYVTYHORJKC-UHFFFAOYSA-N,?,,"HANSCH,C ET AL. (1995)",1.31
102802,688-84-6,688-84-6,[H]C([H])=C(C(=O)OC([H])([H])C([H])(C([H])([H])C([H])([H])[H])C([H])([H])C([H])([H])C([H])([H])C([H])([H])[H])C([H])([H])[H],2-ETHYLHEXYL 2-METHYL-2-PROPENOATE,2-Ethylhexyl methacrylate,2-ethylhexyl 2-methylprop-2-enoate,7384,DTXSID3027293,CC(=C)C(=O)OCC(CCCC)CC,"InChI=1S/C12H22O2/c1-5-7-8-11(6-2)9-14-12(13)10(3)4/h11H,3,5-9H2,1-2,4H3",WDQMWEYDKDCEHT-UHFFFAOYSA-N,?,,SANGSTER (1993),4.54
102804,692-94-4,692-94-4,[H]/C(C#CC#CC#CC([H])([H])[H])=C(/[H])C(=O)OC([H])([H])[H],"2-DECENE-4,6,8-TRIYONIC ACID, METHYL ESTER",,,7386,DTXSID00876661,CC#CC#CC#CC=CC(=O)OC,"InChI=1S/C11H8O2/c1-3-4-5-6-7-8-9-10-11(12)13-2/h9-10H,1-2H3/b10-9+",LBAVIXQTLKRIGP-MDZDMXLPSA-N,?,,"MCLACHLAN,D ET AL. (1986)",3.85
102805,693-02-7,NOCAS_870753,[H]C#CC([H])([H])C([H])([H])C([H])([H])C([H])([H])[H],1-HEXYNE,,,7387,DTXSID30870753,CCCCC#C,"InChI=1S/C6H10/c1-3-5-6-4-2/h1H,4-6H2,2H3",CGHIBGNXEGJPQZ-UHFFFAOYSA-N,?,,"HANSCH,C ET AL. (1995)",2.73
102806,693-21-0,693-21-0,[H]C([H])(O[N+](=O)[O-])C([H])([H])OC([H])([H])C([H])([H])O[N+](=O)[O-],"DIETHYLENE DIGLYCOL, DINITRATE",Diethylene glycol dinitrate,"oxydiethane-2,1-diyl dinitrate",7388,DTXSID1024047,[O-][N+](=O)OCCOCCO[N+]([O-])=O,InChI=1S/C4H8N2O7/c7-5(8)12-3-1-11-2-4-13-6(9)10/h1-4H2,LYAGTVMJGHTIDH-UHFFFAOYSA-N,?,,"HAAG,WR ET AL. (1991)",0.98
102808,693-95-8,693-95-8,[H]C1=NC(C([H])([H])[H])=C([H])S1,4-METHYLTHIAZOLE,4-Methylthiazole,"4-methyl-1,3-thiazole",7390,DTXSID5027300,Cc1c[s]c[n]1,"InChI=1S/C4H5NS/c1-4-2-6-3-5-4/h2-3H,1H3",QMHIMXFNBOYPND-UHFFFAOYSA-N,?,,"HANSCH,C ET AL. (1995)",0.97
102809,693-98-1,693-98-1,[H]C1=C([H])N([H])C(C([H])([H])[H])=N1,"1H-IMIDAZOLE, 2-METHYL-",2-Methylimidazole,2-methyl-1H-imidazole,7391,DTXSID4022107,Cc1[nH]cc[n]1,"InChI=1S/C4H6N2/c1-4-5-2-3-6-4/h2-3H,1H3,(H,5,6)",LXBGSDVWAMZHDD-UHFFFAOYSA-N,?,,"HANSCH,C ET AL. (1995)",0.24
102810,694-59-7,694-59-7,[O-][N+]1=CC=CC=C1,"PYRIDINE, 1-OXIDE","Pyridine, 1-oxide",1-oxidopyridin-1-ium,7392,DTXSID3061007,[O-][n+]1ccccc1,InChI=1S/C5H5NO/c7-6-4-2-1-3-5-6/h1-5H,ILVXOBCQQYKLDS-UHFFFAOYSA-N,?,,"HANSCH,C ET AL. (1995)",-1.2
102812,695-05-6,695-05-6,[H]C1([H])C2([H])C(=O)C3([H])C1([H])C3([H])C2([H])[H],Nortricyclenone-3,,,7394,DTXSID20875717,O=C1C2C3CC1CC32,"InChI=1S/C7H8O/c8-7-3-1-4-5(2-3)6(4)7/h3-6H,1-2H2",ITDQUAQMICQLER-UHFFFAOYSA-N,?,,"LODGE,KB (1999)",0.81
102813,695-19-2,695-19-2,[H]C1=C([H])N(C([H])([H])[H])C([H])=C([H])C1=O,"4(1H)-PYRIDINONE, 1-METHYL-",1-Methyl-4(1H)-pyridinone,1-methylpyridin-4-one,7395,DTXSID10219727,CN1C=CC(=O)C=C1,"InChI=1S/C6H7NO/c1-7-4-2-6(8)3-5-7/h2-5H,1H3",OYPBUQASUUMJKG-UHFFFAOYSA-N,?,,BIOBYTE (1995),-1.22
102814,695-34-1,695-34-1,[H]C1=NC(N([H])[H])=C([H])C(C([H])([H])[H])=C1[H],"2-Pyridinamine, 4-methyl-",4-Methylpyridin-2-amine,4-methylpyridin-2-amine,7396,DTXSID1044720,Cc1cc(N)[n]cc1,"InChI=1S/C6H8N2/c1-5-2-3-8-6(7)4-5/h2-4H,1H3,(H2,7,8)",ORLGLBZRQYOWNA-UHFFFAOYSA-N,?,,DAYLIGHT (1999),0.56
102816,695-99-8,695-99-8,[H]C1=C([H])C(=O)C(Cl)=C([H])C1=O,"2,5-CYCLOHEXADIENE-1,4-DIONE, 2-CHLORO-",,,7398,DTXSID50878857,O=C1C=C(Cl)C(=O)C=C1,InChI=1S/C6H3ClO2/c7-5-3-4(8)1-2-6(5)9/h1-3H,WOGWYSWDBYCVDY-UHFFFAOYSA-N,?,,"HANSCH,C ET AL. (1995)",0.84
102817,696-07-1,696-07-1,[H]C1=C(I)C(=O)N([H])C(=O)N1[H],"2,4(1H,3H)-PYRIMIDINEDIONE, 5-IODO-","2,4(1H,3H)-Pyrimidinedione, 5-iodo-","5-iodo-1H-pyrimidine-2,4-dione",7399,DTXSID3061009,O=C1NC=C(I)C(=O)N1,"InChI=1S/C4H3IN2O2/c5-2-1-6-4(9)7-3(2)8/h1H,(H2,6,7,8,9)",KSNXJLQDQOIRIP-UHFFFAOYSA-N,?,,POMONA (1987),0.04
102818,696-33-3,696-33-3,[H]C1=C([H])C([H])=C(I(=O)=O)C([H])=C1[H],"Benzene, iodyl-",Iodoxybenzene,iodylbenzene,7400,DTXSID70219869,O=I(=O)c1ccccc1,InChI=1S/C6H5IO2/c8-7(9)6-4-2-1-3-5-6/h1-5H,BDOLQESNFGCNSC-UHFFFAOYSA-N,?,,"HANSCH,C ET AL. (1995)",-1.33
102820,,696-54-8,[H]C1=NC([H])=C([H])C(C([H])([H])N=O)=C1[H],4-PYRIDINEALDOXIME,,,7402,,O=NCc1cc[n]cc1,"InChI=1S/C6H6N2O/c9-8-5-6-1-3-7-4-2-6/h1-4H,5H2",OVXGURQHDBLCBY-UHFFFAOYSA-N,?,,"HANSCH,C ET AL. (1995)",0.77
102821,698-63-5,698-63-5,[H]C(=O)C1=C([H])C([H])=C([N+](=O)[O-])O1,5-NITRO-2-FURALDEHYDE,5-Nitro-2-furaldehyde,5-nitrofuran-2-carbaldehyde,7403,DTXSID30220097,[O-][N+](=O)c1ccc(C=O)o1,InChI=1S/C5H3NO4/c7-3-4-1-2-5(10-4)6(8)9/h1-3H,SXINBFXPADXIEY-UHFFFAOYSA-N,?,,"HANSCH,C ET AL. (1995)",1.01
102822,698-67-9,698-67-9,[H]C1=C([H])C(C(=O)N([H])[H])=C([H])C([H])=C1Br,4-BROMOBENZAMIDE,"Benzamide, p-bromo-",4-Bromobenzamide,7404,DTXSID90220098,NC(=O)c1ccc(Br)cc1,"InChI=1S/C7H6BrNO/c8-6-3-1-5(2-4-6)7(9)10/h1-4H,(H2,9,10)",ZRWNRAJCPNLYAK-UHFFFAOYSA-N,?,,"HANSCH,C ET AL. (1995)",1.76
102824,699-18-3,699-18-3,[H]C1=C([H])C([H])=C(/C([H])=C(\[H])[N+](=O)[O-])O1,2-(B-NITROVINYL)FURAN,,,7406,DTXSID70878874,[O-][N+](=O)C=Cc1ccco1,InChI=1S/C6H5NO3/c8-7(9)4-3-6-2-1-5-10-6/h1-5H/b4-3+,WVUICGOYGDHVBH-ONEGZZNKSA-N,?,,"HANSCH,C ET AL. (1995)",1.56
102825,700-00-5,700-00-5,[H]C1=NC(N([H])[H])=C2N=C([H])N(C([H])([H])[H])C2=N1,"9H-PURIN-6-AMINE, 9-METHYL-",9-Methyladenine,9-methylpurin-6-amine,7407,DTXSID10220257,C[n]1c[n]c2c(N)[n]c[n]c12,"InChI=1S/C6H7N5/c1-11-3-10-4-5(7)8-2-9-6(4)11/h2-3H,1H3,(H2,7,8,9)",WRXCXOUDSPTXNX-UHFFFAOYSA-N,?,,"LAM,SP ET AL. (1989)",-0.03
102826,700-12-9,700-12-9,[H]C1=C(C([H])([H])[H])C(C([H])([H])[H])=C(C([H])([H])[H])C(C([H])([H])[H])=C1C([H])([H])[H],PENTAMETHYLBENZENE,"Benzene, pentamethyl-","1,2,3,4,5-Pentamethylbenzene",7408,DTXSID6061024,Cc1c(C)c(C)cc(C)c1C,"InChI=1S/C11H16/c1-7-6-8(2)10(4)11(5)9(7)3/h6H,1-5H3",BEZDDPMMPIDMGJ-UHFFFAOYSA-N,?,,"HANSCH,C ET AL. (1995)",4.56
102828,700-38-9,700-38-9,[H]OC1=C([H])C(C([H])([H])[H])=C([H])C([H])=C1[N+](=O)[O-],5-METHYL-2-NITROPHENOL,6-Nitro-m-cresol,5-METHYL-2-NITROPHENOL,7410,DTXSID00220261,Cc1ccc(c(O)c1)[N+]([O-])=O,"InChI=1S/C7H7NO3/c1-5-2-3-6(8(10)11)7(9)4-5/h2-4,9H,1H3",NQXUSSVLFOBRSE-UHFFFAOYSA-N,?,,"SCHWARZENBACH,RP ET AL. (1988)",2.31
102829,700-75-4,700-75-4,[H]C1=C([H])C([H])=C(N(C([H])([H])[H])C([H])([H])[H])C(OC([H])([H])[H])=C1[H],"N,N-DIMETHYL O-ANISIDINE","Benzenamine, 2-methoxy-N,N-dimethyl-","2-methoxy-N,N-dimethylaniline",7411,DTXSID20220268,COc1ccccc1N(C)C,"InChI=1S/C9H13NO/c1-10(2)8-6-4-5-7-9(8)11-3/h4-7H,1-3H3",XQFJDFIHJKPUEL-UHFFFAOYSA-N,?,,"HANSCH,C ET AL. (1995)",1.63
102830,701-34-8,701-34-8,[H]C1=C([H])C(S(=O)(=O)N([H])[H])=C([H])C([H])=C1Br,4-BROMOBENZENESULFONAMIDE,4-Bromobenzenesulfonamide,4-Bromobenzenesulfonamide,7412,DTXSID10220373,NS(=O)(=O)c1ccc(Br)cc1,"InChI=1S/C6H6BrNO2S/c7-5-1-3-6(4-2-5)11(8,9)10/h1-4H,(H2,8,9,10)",STYQHICBPYRHQK-UHFFFAOYSA-N,?,,"HANSCH,C ET AL. (1995)",1.36
102832,701-65-5,701-65-5,[H]C1=C([H])C([H])=C(SC(Cl)(Cl)Cl)C([H])=C1[H],TRICHLOROMETHYLTHIOBENZENE,PUBCHEM_23273522,C7H5Cl3S,7414,DTXSID30632191,ClC(Cl)(Cl)Sc1ccccc1,"InChI=1S/C7H5Cl3S/c8-7(9,10)11-6-4-2-1-3-5-6/h1-5H",PXIIUHJVQVAEEM-UHFFFAOYSA-N,?,,"HANSCH,C ET AL. (1995)",3.78
102833,701-82-6,701-82-6,[H]OC1=C([H])C(N([H])C(=O)N([H])[H])=C([H])C([H])=C1[H],M-HYDROXYPHENYLUREA,"Urea, (3-hydroxyphenyl)-",(3-Hydroxyphenyl)urea,7415,DTXSID1061027,NC(=O)Nc1cccc(O)c1,"InChI=1S/C7H8N2O2/c8-7(11)9-5-2-1-3-6(10)4-5/h1-4,10H,(H3,8,9,11)",IPRCBIWIPMJXIK-UHFFFAOYSA-N,?,,BIOBYTE STARLIST (2009),0.36
102834,701-83-7,701-83-7,[H]C1=C([H])C(OC(=O)C([H])([H])[H])=C([H])C(F)=C1[H],3-FLUOROPHENYL ACETATE,1-Acetoxy-3-fluorobenzene,(3-fluorophenyl) acetate,7416,DTXSID00220382,CC(=O)Oc1cccc(F)c1,"InChI=1S/C8H7FO2/c1-6(10)11-8-4-2-3-7(9)5-8/h2-5H,1H3",IAWZWMGUTKRLQB-UHFFFAOYSA-N,?,,"HANSCH,C ET AL. (1995)",1.74
102838,705-60-2,705-60-2,[H]C1=C([H])C([H])=C(/C([H])=C(\[N+](=O)[O-])C([H])([H])[H])C([H])=C1[H],B-METHYL B-NITROSTYRENE,(2-Nitro-1-propenyl)benzene,,7418,DTXSID1041188,CC(=Cc1ccccc1)[N+]([O-])=O,"InChI=1S/C9H9NO2/c1-8(10(11)12)7-9-5-3-2-4-6-9/h2-7H,1H3/b8-7-",WGSVFWFSJDAYBM-FPLPWBNLSA-N,?,,"HANSCH,C ET AL. (1995)",2.52
102839,705-62-4,705-62-4,[H]C1=C([H])C([H])=C(N([H])C(=S)N(C([H])([H])[H])C([H])([H])[H])C([H])=C1[H],"THIOUREA, N,N-DIMETHYL-N'-PHENYL-",U 10157,"1,1-Dimethyl-3-phenylthiourea",7419,DTXSID60220767,CN(C)C(=S)Nc1ccccc1,"InChI=1S/C9H12N2S/c1-11(2)9(12)10-8-6-4-3-5-7-8/h3-7H,1-2H3,(H,10,12)",JUSFFZFOIIGLRP-UHFFFAOYSA-N,?,,POMONA (1987),1.04
102841,706-07-0,706-07-0,[H]C1=C([H])C(/C([H])=C(\[H])[N+](=O)[O-])=C([H])C([H])=C1Cl,4-CHLORO B-NITROSTYRENE,,,7420,DTXSID30879307,[O-][N+](=O)C=Cc1ccc(Cl)cc1,InChI=1S/C8H6ClNO2/c9-8-3-1-7(2-4-8)5-6-10(11)12/h1-6H/b6-5+,GLJATYFHELDGEA-AATRIKPKSA-N,?,,"HANSCH,C ET AL. (1995)",2.44
102843,707-07-3,707-07-3,[H]C1=C([H])C([H])=C(C(OC([H])([H])[H])(OC([H])([H])[H])OC([H])([H])[H])C([H])=C1[H],TRIMETHOXYMETHYLBENZENE,"Benzene, (trimethoxymethyl)-",trimethoxymethylbenzene,7422,DTXSID5061039,COC(OC)(OC)c1ccccc1,"InChI=1S/C10H14O3/c1-11-10(12-2,13-3)9-7-5-4-6-8-9/h4-8H,1-3H3",IECKAVQTURBPON-UHFFFAOYSA-N,?,,"HANSCH,C ET AL. (1995)",2.27
102844,707-98-2,707-98-2,[H]C1=NC(N([H])[H])=C2N=C([H])N(C([H])([H])C([H])([H])C([H])([H])[H])C2=N1,9-PROPYL ADENINE,9-propyl-9h-purin-6-amine,C8H11N5,7423,DTXSID10289561,CCC[n]1c[n]c2c1[n]c[n]c2N,"InChI=1S/C8H11N5/c1-2-3-13-5-12-6-7(9)10-4-11-8(6)13/h4-5H,2-3H2,1H3,(H2,9,10,11)",QTULKOMMYIUZQD-UHFFFAOYSA-N,?,,"HANSCH,C ET AL. (1995)",0.74
102845,708-43-0,708-43-0,[H]C1=C([H])C([H])=C2C(=C1[H])N=NN2C([H])([H])C([H])([H])C([H])([H])C([H])([H])[H],1-BUTYLBENZOTRIAZOLE,"1-Butyl-1H-benzo[d][1,2,3]triazole",C10H13N3,7424,DTXSID90402877,CCCC[n]1[n][n]c2ccccc12,"InChI=1S/C10H13N3/c1-2-3-8-13-10-7-5-4-6-9(10)11-12-13/h4-7H,2-3,8H2,1H3",IDXCVQOKCGDSOR-UHFFFAOYSA-N,?,,"HANSCH,C ET AL. (1995)",2.57
102847,709-79-5,709-79-5,[H]C1=C([H])C([H])=C(/C([H])=C(\C#N)C(=O)N([H])[H])C([H])=C1[H],BENZALCYANOACETAMIDE,,,7426,DTXSID30876215,NC(=O)C(=Cc1ccccc1)C#N,"InChI=1S/C10H8N2O/c11-7-9(10(12)13)6-8-4-2-1-3-5-8/h1-6H,(H2,12,13)/b9-6+",SKGACPGKMWWAIG-RMKNXTFCSA-N,?,,"HANSCH,C ET AL. (1995)",1.56
102848,709-98-8,709-98-8,[H]C1=C([H])C(N([H])C(=O)C([H])([H])C([H])([H])[H])=C([H])C(Cl)=C1Cl,PROPANIL,Propanil,"N-(3,4-dichlorophenyl)propanamide",7427,DTXSID8022111,CCC(=O)Nc1cc(Cl)c(Cl)cc1,"InChI=1S/C9H9Cl2NO/c1-2-9(13)12-6-3-4-7(10)8(11)5-6/h3-5H,2H2,1H3,(H,12,13)",LFULEKSKNZEWOE-UHFFFAOYSA-N,?,,"HANSCH,C ET AL. (1995)",3.07
102849,710-15-6,710-15-6,[H]C1=C([H])C([H])=C(C([H])([H])C([H])([H])N([H])S(=O)(=O)N([H])[H])C([H])=C1[H],PHENETHYL SULFAMIDE,PHENETHYLSULFAMIDE,C8H12N2O2S,7428,DTXSID70274519,NS(=O)(=O)NCCc1ccccc1,"InChI=1S/C8H12N2O2S/c9-13(11,12)10-7-6-8-4-2-1-3-5-8/h1-5,10H,6-7H2,(H2,9,11,12)",PJPREWNCIPMGIS-UHFFFAOYSA-N,?,,"HANSCH,C ET AL. (1995)",0.81
102851,711-82-0,711-82-0,[H]OC([H])([H])C([H])([H])OC1=C([H])C([H])=C([H])C2=C([H])C([H])=C([H])C([H])=C12,"ETHANOL, 2-(1-NAPHTHALENYLOXY)-","Ethanol, 2-(1-naphthalenyloxy)-",2-naphthalen-1-yloxyethanol,7430,DTXSID9061045,OCCOc1cccc2ccccc21,"InChI=1S/C12H12O2/c13-8-9-14-12-7-3-5-10-4-1-2-6-11(10)12/h1-7,13H,8-9H2",HCWJMLZCVUEYPO-UHFFFAOYSA-N,?,,"CHAMBERLAIN,K ET AL. (1986)",2.5
102852,713-05-3,NOCAS_862385,[H]C1=NC([H])=C(C(=O)C([H])([H])C([H])([H])C(=O)N([H])C([H])([H])[H])C([H])=C1[H],"3-PYRIDINEBUTANAMIDE, N-METHYL-?-OXO-",,,7431,DTXSID80862385,CNC(=O)CCC(=O)c1c[n]ccc1,"InChI=1S/C10H12N2O2/c1-11-10(14)5-4-9(13)8-3-2-6-12-7-8/h2-3,6-7H,4-5H2,1H3,(H,11,14)",WOOSCPWOYYLIHS-UHFFFAOYSA-N,?,,"LI,NY & GORROD,JW (1992)",-0.69
102853,715-48-0,715-48-0,CC1=CC2=C(C=C1)[N+]([O-])=CC=C2[N+](=O)[O-],6-METHYL-4-NITROQUINOLINE-1-OXIDE,"Quinoline, 6-methyl-4-nitro-, 1-oxide",6-methyl-4-nitro-1-oxidoquinolin-1-ium,7432,DTXSID20221715,Cc1cc2c(cc1)[n+]([O-])ccc2[N+]([O-])=O,"InChI=1S/C10H8N2O3/c1-7-2-3-9-8(6-7)10(12(14)15)4-5-11(9)13/h2-6H,1H3",VJJJEAZZHWTTED-UHFFFAOYSA-N,?,,"HANSCH,C ET AL. (1995)",1.43
102855,716-79-0,716-79-0,[H]C1=C([H])C([H])=C(C2=NC3=C(C([H])=C([H])C([H])=C3[H])N2[H])C([H])=C1[H],2-PHENYLBENZIMIDAZOLE,2-Phenylbenzimidazole,2-phenyl-1H-benzimidazole,7434,DTXSID5052460,c1ccccc1-c1[nH]c2ccccc2[n]1,"InChI=1S/C13H10N2/c1-2-6-10(7-3-1)13-14-11-8-4-5-9-12(11)15-13/h1-9H,(H,14,15)",DWYHDSLIWMUSOO-UHFFFAOYSA-N,?,,"HANSCH,C ET AL. (1995)",3.24
102856,718-64-9,718-64-9,[H]OC(C1=C([H])C([H])=C([H])C([H])=C1[H])(C(F)(F)F)C(F)(F)F,"2-PROPANOL,2-PHHENYL-1,1,1,3,3,3-HEXAFLUORO","Benzenemethanol, .alpha.,.alpha.-bis(trifluoromethyl)-","1,1,1,3,3,3-hexafluoro-2-phenylpropan-2-ol",7435,DTXSID3061051,OC(c1ccccc1)(C(F)(F)F)C(F)(F)F,"InChI=1S/C9H6F6O/c10-8(11,12)7(16,9(13,14)15)6-4-2-1-3-5-6/h1-5,16H",IZPIZCAYJQCTNG-UHFFFAOYSA-N,?,,"HANSCH,C ET AL. (1995)",3.41
102857,718-67-2,718-67-2,[H]C1=C(C2(C([H])([H])[H])C(=O)N([H])C(=O)N([H])C2=O)C([H])([H])C([H])([H])C([H])([H])C1([H])[H],"BARBITURIC ACID,5ME-5CYHXENE",,,7436,DTXSID40876443,CC1(C2CCCCC=2)C(=O)NC(=O)NC1=O,"InChI=1S/C11H14N2O3/c1-11(7-5-3-2-4-6-7)8(14)12-10(16)13-9(11)15/h5H,2-4,6H2,1H3,(H2,12,13,14,15,16)",RRLOKVSPWZSADO-UHFFFAOYSA-N,?,,"YIH,TD & VAN ROSSUM,JM (1977)",1.6