ChemID,source_casrn,CAS,SMILES,NAME,preferred_name,iupac,MPID,dsstox_substance_id,Canonical_QSARr,InChI_Code_QSARr,InChI Key_QSARr,Salt_Solvent,Salt_Solvent_ID,Kow Reference,LogP
102509,611-34-7,611-34-7,[H]C1=NC2=C([H])C([H])=C([H])C(N([H])[H])=C2C([H])=C1[H],5-AMINOQUINOLINE,5-Aminoquinoline,quinolin-5-amine,7100,DTXSID80209978,Nc1cccc2[n]cccc21,"InChI=1S/C9H8N2/c10-8-4-1-5-9-7(8)3-2-6-11-9/h1-6H,10H2",XMIAFAKRAAMSGX-UHFFFAOYSA-N,?,,"HANSCH,C ET AL. (1995)",1.16
102511,611-70-1,611-70-1,[H]C1=C([H])C([H])=C(C(=O)C([H])(C([H])([H])[H])C([H])([H])[H])C([H])=C1[H],"1-PROPANONE, 2-METHYL-1-PHENYL-",Isopropyl phenyl ketone,2-methyl-1-phenylpropan-1-one,7102,DTXSID6048202,CC(C)C(=O)c1ccccc1,"InChI=1S/C10H12O/c1-8(2)10(11)9-6-4-3-5-7-9/h3-8H,1-2H3",BSMGLVDZZMBWQB-UHFFFAOYSA-N,?,,"HANSCH,C ET AL. (1995)",2.73
102512,611-74-5,611-74-5,[H]C1=C([H])C([H])=C(C(=O)N(C([H])([H])[H])C([H])([H])[H])C([H])=C1[H],"N,N-DIMETHYLBENZAMIDE","Benzamide, N,N-dimethyl-","N,N-Dimethylbenzamide",7103,DTXSID4060602,CN(C)C(=O)c1ccccc1,"InChI=1S/C9H11NO/c1-10(2)9(11)8-6-4-3-5-7-8/h3-7H,1-2H3",IMNDHOCGZLYMRO-UHFFFAOYSA-N,?,,"HANSCH,C ET AL. (1995)",0.62
102513,612-16-8,612-16-8,[H]OC([H])([H])C1=C([H])C([H])=C([H])C([H])=C1OC([H])([H])[H],O-METHOXYBENZYL ALCOHOL,"Benzenemethanol, 2-methoxy-",(2-methoxyphenyl)methanol,7104,DTXSID4060606,COc1ccccc1CO,"InChI=1S/C8H10O2/c1-10-8-5-3-2-4-7(8)6-9/h2-5,9H,6H2,1H3",WYLYBQSHRJMURN-UHFFFAOYSA-N,?,,"HANSCH,C ET AL. (1995)",1.13
102515,612-24-8,612-24-8,[H]C1=C([H])C([H])=C([N+](=O)[O-])C(C#N)=C1[H],1-NITRO-2-CYANOBENZENE,"Benzonitrile, o-nitro-",2-Nitrobenzonitrile,7106,DTXSID80210100,N#Cc1ccccc1[N+]([O-])=O,InChI=1S/C7H4N2O2/c8-5-6-3-1-2-4-7(6)9(10)11/h1-4H,SWBDKCMOLSUXRH-UHFFFAOYSA-N,?,,"NAKAGAWA,Y ET AL. (1992)",1.02
102516,612-25-9,612-25-9,[H]OC([H])([H])C1=C([H])C([H])=C([H])C([H])=C1[N+](=O)[O-],2-NITROBENZYL ALCOHOL,2-Nitrobenzyl alcohol,,7107,DTXSID40210101,[O-][N+](=O)c1ccccc1CO,"InChI=1S/C7H7NO3/c9-5-6-3-1-2-4-7(6)8(10)11/h1-4,9H,5H2",BWRBVBFLFQKBPT-UHFFFAOYSA-N,?,,"HANSCH,C ET AL. (1995)",1.24
102517,612-28-2,612-28-2,[H]C1=C([H])C([H])=C([N+](=O)[O-])C(N([H])C([H])([H])[H])=C1[H],N-METHYL-O-NITROANILINE,"Benzenamine, N-methyl-2-nitro-",N-Methyl-2-nitroaniline,7108,DTXSID4060608,CNc1ccccc1[N+]([O-])=O,"InChI=1S/C7H8N2O2/c1-8-6-4-2-3-5-7(6)9(10)11/h2-5,8H,1H3",KFBOUJZFFJDYTA-UHFFFAOYSA-N,?,,"HANSCH,C ET AL. (1995)",2.18
102519,612-45-3,612-45-3,[H]C1=C(N([H])C(=O)C([H])([H])[H])C([N+](=O)[O-])=C([H])C(C([H])([H])[H])=C1[H],2-NITRO-4-METHYLACETANILIDE,2-Nitro-4-methylacetanilide,N-(4-methyl-2-nitrophenyl)acetamide,7110,DTXSID8060610,CC(=O)Nc1ccc(C)cc1[N+]([O-])=O,"InChI=1S/C9H10N2O3/c1-6-3-4-8(10-7(2)12)9(5-6)11(13)14/h3-5H,1-2H3,(H,10,12)",LQZGUJSFLJIJKA-UHFFFAOYSA-N,?,,"NAKAGAWA,Y ET AL. (1992)",1.49
102520,612-57-7,612-57-7,[H]C1=NC2=C([H])C([H])=C(Cl)C([H])=C2C([H])=C1[H],6-CHLOROQUINOLINE,"Quinoline, 6-chloro-",6-Chloroquinoline,7111,DTXSID3060611,Clc1cc2ccc[n]c2cc1,InChI=1S/C9H6ClN/c10-8-3-4-9-7(6-8)2-1-5-11-9/h1-6H,GKJSZXGYFJBYRQ-UHFFFAOYSA-N,?,,"HANSCH,C ET AL. (1995)",2.73
102521,612-58-8,612-58-8,[H]C1=NC2=C([H])C([H])=C([H])C([H])=C2C([H])=C1C([H])([H])[H],3-METHYLQUINOLINE,3-Methylquinoline,3-METHYLQUINOLINE,7112,DTXSID60210108,Cc1cc2ccccc2[n]c1,"InChI=1S/C10H9N/c1-8-6-9-4-2-3-5-10(9)11-7-8/h2-7H,1H3",DTBDAFLSBDGPEA-UHFFFAOYSA-N,?,,"HANSCH,C ET AL. (1995)",2.53
102523,612-62-4,612-62-4,[H]C1=C([H])C2=C([H])C([H])=C([H])C([H])=C2N=C1Cl,2-CHLOROQUINOLINE,"Quinoline, 2-chloro-",2-Chloroquinoline,7114,DTXSID8060612,Clc1ccc2ccccc2[n]1,InChI=1S/C9H6ClN/c10-9-6-5-7-3-1-2-4-8(7)11-9/h1-6H,OFUFXTHGZWIDDB-UHFFFAOYSA-N,?,,"HANSCH,C ET AL. (1995)",2.71
102524,612-96-4,612-96-4,[H]C1=C([H])C([H])=C([H])C2=C([H])C([H])=C(C3=C([H])C([H])=C([H])C([H])=C3[H])N=C12,2-PHENYLQUINOLINE,2-Phenylquinoline,2-Phenylquinoline,7115,DTXSID30210115,c1cc([n]c2ccccc21)-c1ccccc1,InChI=1S/C15H11N/c1-2-6-12(7-3-1)15-11-10-13-8-4-5-9-14(13)16-15/h1-11H,FSEXLNMNADBYJU-UHFFFAOYSA-N,?,,"HANSCH,C ET AL. (1995)",3.9
102525,612-98-6,612-98-6,[H]C1=C([H])C([H])=C(N(N=O)C([H])([H])C2=C([H])C([H])=C([H])C([H])=C2[H])C([H])=C1[H],N-BENZYL-N-NITROSOANILINE,"Benzenemethanamine, N-nitroso-N-phenyl-",N-phenyl-N-(phenylmethyl)nitrous amide,7116,DTXSID3060615,O=NN(Cc1ccccc1)c1ccccc1,"InChI=1S/C13H12N2O/c16-14-15(13-9-5-2-6-10-13)11-12-7-3-1-4-8-12/h1-10H,11H2",BCIBCBXFXGKGBL-UHFFFAOYSA-N,?,,"HANSCH,C ET AL. (1995)",3.38
102527,613-31-0,613-31-0,[H]C1=C([H])C([H])=C2C(=C1[H])C([H])([H])C1=C(C([H])=C([H])C([H])=C1[H])C2([H])[H],"9,10-DIHYDROANTHRACENE","Anthracene, 9,10-dihydro-","9,10-Dihydroanthracene",7118,DTXSID3075256,C1c2ccccc2Cc2ccccc21,"InChI=1S/C14H12/c1-2-6-12-10-14-8-4-3-7-13(14)9-11(12)5-1/h1-8H,9-10H2",WPDAVTSOEQEGMS-UHFFFAOYSA-N,?,,"HANSCH,C ET AL. (1995)",4.25
102528,613-33-2,613-33-2,[H]C1=C([H])C(C([H])([H])[H])=C([H])C([H])=C1C1=C([H])C([H])=C(C([H])([H])[H])C([H])=C1[H],P-TOLYLTOLUENE,"4,4'-Dimethylbiphenyl",1-methyl-4-(4-methylphenyl)benzene,7119,DTXSID30210195,Cc1ccc(cc1)-c1ccc(C)cc1,"InChI=1S/C14H14/c1-11-3-7-13(8-4-11)14-9-5-12(2)6-10-14/h3-10H,1-2H3",RZTDESRVPFKCBH-UHFFFAOYSA-N,?,,"DOUCETTE,WJ & ANDREN,AW (1987)",5.09
102529,613-50-3,613-50-3,[H]C1=NC2=C([H])C([H])=C([N+](=O)[O-])C([H])=C2C([H])=C1[H],6-NITROQUINOLINE,6-Nitroquinoline,6-nitroquinoline,7120,DTXSID1020984,[O-][N+](=O)c1cc2ccc[n]c2cc1,InChI=1S/C9H6N2O2/c12-11(13)8-3-4-9-7(6-8)2-1-5-10-9/h1-6H,SMHPLBXIVNQFBA-UHFFFAOYSA-N,?,,"HANSCH,C ET AL. (1995)",1.84
102531,613-70-7,NOCAS_862289,[H]C1=C([H])C(OC(=O)C([H])([H])[H])=C(OC([H])([H])[H])C([H])=C1[H],O-METHOXYPHENYL ACETATE,,,7122,DTXSID80862289,CC(=O)Oc1ccccc1OC,"InChI=1S/C9H10O3/c1-7(10)12-9-6-4-3-5-8(9)11-2/h3-6H,1-2H3",BHJHPYFAYGAPLS-UHFFFAOYSA-N,?,,"HANSCH,C ET AL. (1995)",1.38
102532,613-93-4,613-93-4,[H]C1=C([H])C([H])=C(C(=O)N([H])C([H])([H])[H])C([H])=C1[H],N-METHYLBENZAMIDE,N-Methylbenzamide,N-methylbenzamide,7123,DTXSID5025570,CNC(=O)c1ccccc1,"InChI=1S/C8H9NO/c1-9-8(10)7-5-3-2-4-6-7/h2-6H,1H3,(H,9,10)",NCCHARWOCKOHIH-UHFFFAOYSA-N,?,,"HANSCH,C ET AL. (1995)",0.86
102533,613-94-5,613-94-5,[H]C1=C([H])C([H])=C(C(=O)N([H])N([H])[H])C([H])=C1[H],BENZOYL HYDRAZINE,Benzoyl hydrazine,benzohydrazide,7124,DTXSID6020149,NNC(=O)c1ccccc1,"InChI=1S/C7H8N2O/c8-9-7(10)6-4-2-1-3-5-6/h1-5H,8H2,(H,9,10)",WARCRYXKINZHGQ-UHFFFAOYSA-N,?,,"HANSCH,C ET AL. (1995)",0.19
102535,614-18-6,614-18-6,[H]C1=NC([H])=C([H])C([H])=C1C(=O)OC([H])([H])C([H])([H])[H],"NICOTINIC ACID, ETHYL ESTER",Ethyl nicotinate,ethyl pyridine-3-carboxylate,7126,DTXSID9046526,CCOC(=O)c1ccc[n]c1,"InChI=1S/C8H9NO2/c1-2-11-8(10)7-4-3-5-9-6-7/h3-6H,2H2,1H3",XBLVHTDFJBKJLG-UHFFFAOYSA-N,?,,"HANSCH,C ET AL. (1995)",1.32
102536,614-19-7,NOCAS_870691,[H]OC(=O)C([H])([H])C([H])(C1=C([H])C([H])=C([H])C([H])=C1[H])N([H])[H],3-AMINO-3-PHENYLPROPANOIC ACID,,,7127,DTXSID70870691,NC(CC(O)=O)c1ccccc1,"InChI=1S/C9H11NO2/c10-8(6-9(11)12)7-4-2-1-3-5-7/h1-5,8H,6,10H2,(H,11,12)",UJOYFRCOTPUKAK-UHFFFAOYSA-N,?,,"HANSCH,C ET AL. (1995)",-1.4
102537,614-30-2,614-30-2,[H]C1=C([H])C([H])=C(N(C([H])([H])[H])C([H])([H])C2=C([H])C([H])=C([H])C([H])=C2[H])C([H])=C1[H],N-METHYL-N-BENZYLANILINE,"Benzenemethanamine, N-methyl-N-phenyl-",N-methyl-N-(phenylmethyl)aniline,7128,DTXSID6060630,CN(Cc1ccccc1)c1ccccc1,"InChI=1S/C14H15N/c1-15(14-10-6-3-7-11-14)12-13-8-4-2-5-9-13/h2-11H,12H2,1H3",LXZGVFCKZRHKMU-UHFFFAOYSA-N,?,,"HANSCH,C ET AL. (1995)",4.22
102539,614-75-5,614-75-5,[H]OC(=O)C([H])([H])C1=C([H])C([H])=C([H])C([H])=C1O[H],O-HYDROXYPHENYLACETIC ACID,2-Hydroxyphenylacetic acid,2-(2-hydroxyphenyl)acetic acid,7130,DTXSID1060633,Oc1ccccc1CC(O)=O,"InChI=1S/C8H8O3/c9-7-4-2-1-3-6(7)5-8(10)11/h1-4,9H,5H2,(H,10,11)",CCVYRRGZDBSHFU-UHFFFAOYSA-N,?,,"HANSCH,C ET AL. (1995)",0.85
102540,614-76-6,614-76-6,[H]C1=C([H])C([H])=C(N([H])C(=O)C([H])([H])[H])C(Br)=C1[H],2-BROMOACETANILIDE,"Acetamide, N-(2-bromophenyl)-",N-(2-bromophenyl)acetamide,7131,DTXSID10210330,CC(=O)Nc1ccccc1Br,"InChI=1S/C8H8BrNO/c1-6(11)10-8-5-3-2-4-7(8)9/h2-5H,1H3,(H,10,11)",VOBKUOHHOWQHFZ-UHFFFAOYSA-N,?,,"NAKAGAWA,Y ET AL. (1992)",1.34
102541,614-80-2,614-80-2,[H]OC1=C([H])C([H])=C([H])C([H])=C1N([H])C(=O)C([H])([H])[H],O-HYDROXYACETANILIDE,2-Acetamidophenol,N-(2-hydroxyphenyl)acetamide,7132,DTXSID8022082,CC(=O)Nc1ccccc1O,"InChI=1S/C8H9NO2/c1-6(10)9-7-4-2-3-5-8(7)11/h2-5,11H,1H3,(H,9,10)",ADVGKWPZRIDURE-UHFFFAOYSA-N,?,,"HANSCH,C ET AL. (1995)",0.72
102543,614-98-2,614-98-2,[H]C1=C([H])C(C(=O)OC([H])([H])C([H])([H])[H])=C([H])O1,"FURAN-3-CARBOXYLIC AC, ET ESTER",Ethyl 3-furoate,ethyl furan-3-carboxylate,7134,DTXSID90210333,CCOC(=O)c1ccoc1,"InChI=1S/C7H8O3/c1-2-10-7(8)6-3-4-9-5-6/h3-5H,2H2,1H3",LOFDXZJSDVCYAS-UHFFFAOYSA-N,?,,"HANSCH,C ET AL. (1995)",1.78
102544,614-99-3,614-99-3,[H]C1=C([H])C([H])=C(C(=O)OC([H])([H])C([H])([H])[H])O1,"FUROIC ACID, ETHYL ESTER","2-Furancarboxylic acid, ethyl ester",Ethyl furan-2-carboxylate,7135,DTXSID0060640,CCOC(=O)c1ccco1,"InChI=1S/C7H8O3/c1-2-9-7(8)6-4-3-5-10-6/h3-5H,2H2,1H3",NHXSTXWKZVAVOQ-UHFFFAOYSA-N,?,,"HANSCH,C ET AL. (1995)",1.52
102545,615-15-6,615-15-6,[H]C1=C([H])C([H])=C2C(=C1[H])N=C(C([H])([H])[H])N2[H],2-METHYLBENAIMIDAZOLE,"1H-Benzimidazole, 2-methyl-",2-methyl-1H-benzimidazole,7136,DTXSID5060641,Cc1[nH]c2ccccc2[n]1,"InChI=1S/C8H8N2/c1-6-9-7-4-2-3-5-8(7)10-6/h2-5H,1H3,(H,9,10)",LDZYRENCLPUXAX-UHFFFAOYSA-N,?,,"HANSCH,C ET AL. (1995)",1.43
102547,615-22-5,615-22-5,[H]C1=C([H])C2=C(SC(SC([H])([H])[H])=N2)C([H])=C1[H],2-METHYLTHIOBENZOTHIAZOLE,2-(Methylthio)benzothiazole,"2-(methylsulfanyl)-1,3-benzothiazole",7138,DTXSID70274236,CSc1[n]c2ccccc2[s]1,"InChI=1S/C8H7NS2/c1-10-8-9-6-4-2-3-5-7(6)11-8/h2-5H,1H3",UTBVIMLZIRIFFR-UHFFFAOYSA-N,?,,"PLATFORD,RF (1983)",3.15
102548,615-36-1,615-36-1,[H]C1=C([H])C([H])=C(N([H])[H])C(Br)=C1[H],O-BROMOANILINE,"Benzenamine, 2-bromo-",2-Bromoaniline,7139,DTXSID5060645,Nc1ccccc1Br,"InChI=1S/C6H6BrN/c7-5-3-1-2-4-6(5)8/h1-4H,8H2",AOPBDRUWRLBSDB-UHFFFAOYSA-N,?,,"HANSCH,C ET AL. (1995)",2.11
102549,615-43-0,615-43-0,[H]C1=C([H])C([H])=C(N([H])[H])C(I)=C1[H],2-IODOANILINE,o-Iodoaniline,2-Iodoaniline,7140,DTXSID5060649,Nc1ccccc1I,"InChI=1S/C6H6IN/c7-5-3-1-2-4-6(5)8/h1-4H,8H2",UBPDKIDWEADHPP-UHFFFAOYSA-N,?,,"HANSCH,C ET AL. (1995)",2.32
102551,615-60-1,615-60-1,[H]C1=C(Cl)C([H])=C(C([H])([H])[H])C(C([H])([H])[H])=C1[H],"3,4-DIMETHYLCHLOROBENZENE",4-Chloro-o-xylene,"4-chloro-1,2-dimethylbenzene",7142,DTXSID50210470,Cc1cc(Cl)ccc1C,"InChI=1S/C8H9Cl/c1-6-3-4-8(9)5-7(6)2/h3-5H,1-2H3",HNQLMBJUMVLFCF-UHFFFAOYSA-N,?,,"HANSCH,C ET AL. (1995)",3.82
102552,615-67-8,615-67-8,[H]OC1=C([H])C([H])=C(O[H])C(Cl)=C1[H],CHLOROHYDROQUINONE,Chlorohydroquinone,"2-chlorobenzene-1,4-diol",7143,DTXSID4060656,Oc1cc(Cl)c(O)cc1,"InChI=1S/C6H5ClO2/c7-5-3-4(8)1-2-6(5)9/h1-3,8-9H",AJPXTSMULZANCB-UHFFFAOYSA-N,?,,"HANSCH,C ET AL. (1995)",1.4
102553,615-74-7,615-74-7,[H]OC1=C(Cl)C([H])=C([H])C(C([H])([H])[H])=C1[H],"PHENOL, 2-CHLORO-5-METHYL-",2-Chloro-5-methylphenol,2-chloro-5-methylphenol,7144,DTXSID1046558,Cc1ccc(Cl)c(O)c1,"InChI=1S/C7H7ClO/c1-5-2-3-6(8)7(9)4-5/h2-4,9H,1H3",SMFHPCZZAAMJJO-UHFFFAOYSA-N,?,,CHEMICALS INSPECTION AND TESTING INSTITU (1992),2.9
102555,616-03-5,40856-73-3,[H]N1C(=O)N([H])C([H])(C([H])([H])[H])C1=O,"2,4-IMIDAZOLIDINEDIONE, 5-METHYL-",Methylhydantoin-5-(L),C4H6N2O2,7146,DTXSID70423560,CC1NC(=O)NC1=O,"InChI=1S/C4H6N2O2/c1-2-3(7)6-4(8)5-2/h2H,1H3,(H2,5,6,7,8)",VMAQYKGITHDWKL-UHFFFAOYSA-N,?,,SANGSTER (1994),-0.91
102556,616-44-4,616-44-4,[H]C1=C([H])C(C([H])([H])[H])=C([H])S1,3-METHYLTHIOPHENE,"Thiophene, 3-methyl-",3-Methylthiophene,7147,DTXSID8060666,Cc1c[s]cc1,"InChI=1S/C5H6S/c1-5-2-3-6-4-5/h2-4H,1H3",QENGPZGAWFQWCZ-UHFFFAOYSA-N,?,,"HANSCH,C ET AL. (1995)",2.34
102557,616-45-5,616-45-5,[H]N1C(=O)C([H])([H])C([H])([H])C1([H])[H],PYRROLIDONE,2-Pyrrolidinone,pyrrolidin-2-one,7148,DTXSID8027246,O=C1CCCN1,"InChI=1S/C4H7NO/c6-4-2-1-3-5-4/h1-3H2,(H,5,6)",HNJBEVLQSNELDL-UHFFFAOYSA-N,?,,"SASAKI,H ET AL. (1991)",-0.85
102559,616-68-2,616-68-2,[H]C1=C(C([H])([H])[H])C([H])=C(C([H])([H])[H])C(N([H])C(=O)C([H])([H])N(C([H])([H])C([H])([H])[H])C([H])([H])C([H])([H])[H])=C1C([H])([H])[H],TRIMECAIN,Trimecaine,"N~2~,N~2~-diethyl-N-(2,4,6-trimethylphenyl)glycinamide",7150,DTXSID6048410,Cc1cc(C)c(NC(=O)CN(CC)CC)c(C)c1,"InChI=1S/C15H24N2O/c1-6-17(7-2)10-14(18)16-15-12(4)8-11(3)9-13(15)5/h8-9H,6-7,10H2,1-5H3,(H,16,18)",GOZBHBFUQHMKQB-UHFFFAOYSA-N,?,,"HANSCH,C ET AL. (1995)",2.41
102560,616-82-0,616-82-0,[H]OC(=O)C1=C([H])C([H])=C(O[H])C([N+](=O)[O-])=C1[H],4-HYDROXY-3-NITROBENZOIC ACID,4-Hydroxy-3-nitrobenzoic acid,4-Hydroxy-3-nitrobenzoic acid,7151,DTXSID20210609,[O-][N+](=O)c1cc(ccc1O)C(O)=O,"InChI=1S/C7H5NO5/c9-6-2-1-4(7(10)11)3-5(6)8(12)13/h1-3,9H,(H,10,11)",QRYSWXFQLFLJTC-UHFFFAOYSA-N,?,,"HANSCH,C ET AL. (1995)",1.85
102561,617-31-2,NOCAS_871792,[H]OC(=O)C([H])(O[H])C([H])([H])C([H])([H])C([H])([H])[H],"PENTANOIC ACID, 2-HYDROXY-",,,7152,DTXSID00871792,CCCC(O)C(O)=O,"InChI=1S/C5H10O3/c1-2-3-4(6)5(7)8/h4,6H,2-3H2,1H3,(H,7,8)",JRHWHSJDIILJAT-UHFFFAOYSA-N,?,,SANGSTER (1993),0.45
102563,617-90-3,617-90-3,[H]C1=C([H])C([H])=C(C#N)O1,2-CYANOFURAN,2-Furonitrile,furan-2-carbonitrile,7154,DTXSID40210707,N#Cc1ccco1,InChI=1S/C5H3NO/c6-4-5-2-1-3-7-5/h1-3H,YXDXXGXWFJCXEB-UHFFFAOYSA-N,?,,"HANSCH,C ET AL. (1995)",0.96
102564,618-47-3,618-47-3,[H]C1=C([H])C(C([H])([H])[H])=C([H])C(C(=O)N([H])[H])=C1[H],3-METHYLBENZAMIDE,m-Toluamide,3-Methylbenzamide,7155,DTXSID50210798,Cc1cc(ccc1)C(N)=O,"InChI=1S/C8H9NO/c1-6-3-2-4-7(5-6)8(9)10/h2-5H,1H3,(H2,9,10)",WGRPQCFFBRDZFV-UHFFFAOYSA-N,?,,"HANSCH,C ET AL. (1995)",1.18
102565,618-48-4,618-48-4,[H]C1=C([H])C(C(=O)N([H])[H])=C([H])C(Cl)=C1[H],3-CHLOROBENZAMIDE,"Benzamide, m-chloro- (8CI)",3-Chlorobenzamide,7156,DTXSID10210799,NC(=O)c1cccc(Cl)c1,"InChI=1S/C7H6ClNO/c8-6-3-1-2-5(4-6)7(9)10/h1-4H,(H2,9,10)",MJTGQALMWUUPQM-UHFFFAOYSA-N,?,,"HANSCH,C ET AL. (1995)",1.51
102567,618-51-9,618-51-9,[H]OC(=O)C1=C([H])C([H])=C([H])C(I)=C1[H],3-IODOBENZOIC ACID,"Benzoic acid, 3-iodo-",3-Iodobenzoic acid,7158,DTXSID6060682,OC(=O)c1cccc(I)c1,"InChI=1S/C7H5IO2/c8-6-3-1-2-5(4-6)7(9)10/h1-4H,(H,9,10)",KVBWBCRPWVKFQT-UHFFFAOYSA-N,?,,"HANSCH,C ET AL. (1995)",3.13
102568,618-62-2,618-62-2,[H]C1=C(Cl)C([H])=C([N+](=O)[O-])C([H])=C1Cl,"BENZENE, 1,3-DICHLORO-5-NITRO-","Benzene, 1,3-dichloro-5-nitro-","1,3-Dichloro-5-nitrobenzene",7159,DTXSID1060683,[O-][N+](=O)c1cc(Cl)cc(Cl)c1,InChI=1S/C6H3Cl2NO2/c7-4-1-5(8)3-6(2-4)9(10)11/h1-3H,RNABGKOKSBUFHW-UHFFFAOYSA-N,?,,"NIIMI,AJ ET AL. (1989)",3.09
102569,618-80-4,618-80-4,[H]OC1=C(Cl)C([H])=C([N+](=O)[O-])C([H])=C1Cl,"2,6-DICHLORO-4-NITROPHENOL","Phenol, 2,6-dichloro-4-nitro-","2,6-Dichloro-4-nitrophenol",7160,DTXSID6060686,[O-][N+](=O)c1cc(Cl)c(O)c(Cl)c1,"InChI=1S/C6H3Cl2NO3/c7-4-1-3(9(11)12)2-5(8)6(4)10/h1-2,10H",PXSGFTWBZNPNIC-UHFFFAOYSA-N,?,,"HANSCH,C ET AL. (1995)",2.94
102571,618-94-0,618-94-0,[H]C1=C([H])C([N+](=O)[O-])=C([H])C(C(=O)N([H])N([H])[H])=C1[H],3-NITROBENZOYLHYDRAZINE,"Benzoic acid, 3-nitro-, hydrazide",3-Nitrobenzohydrazide,7162,DTXSID0060690,NNC(=O)c1cc(ccc1)[N+]([O-])=O,"InChI=1S/C7H7N3O3/c8-9-7(11)5-2-1-3-6(4-5)10(12)13/h1-4H,8H2,(H,9,11)",NQEWXLVDAVTOHM-UHFFFAOYSA-N,?,,"HANSCH,C ET AL. (1995)",0.23
102572,618-95-1,618-95-1,[H]C1=C([H])C(C(=O)OC([H])([H])[H])=C([H])C([N+](=O)[O-])=C1[H],"BENZOIC ACID, 3-NITRO-, METHYL ESTER","Benzoic acid, 3-nitro-, methyl ester",Methyl 3-nitrobenzoate,7163,DTXSID5060691,COC(=O)c1cc(ccc1)[N+]([O-])=O,"InChI=1S/C8H7NO4/c1-13-8(10)6-3-2-4-7(5-6)9(11)12/h2-5H,1H3",AXLYJLKKPUICKV-UHFFFAOYSA-N,?,,"SOTOMATSU,T ET AL. (1993)",1.89
102573,618-98-4,618-98-4,[H]C1=C([H])C(C(=O)OC([H])([H])C([H])([H])[H])=C([H])C([N+](=O)[O-])=C1[H],ETHYL-M-NITROBENZOATE,"Benzoic acid, 3-nitro-, ethyl ester",Ethyl 3-nitrobenzoate,7164,DTXSID0060692,CCOC(=O)c1cc(ccc1)[N+]([O-])=O,"InChI=1S/C9H9NO4/c1-2-14-9(11)7-4-3-5-8(6-7)10(12)13/h3-6H,2H2,1H3",MKBIJCPQTPFQKQ-UHFFFAOYSA-N,?,,"HANSCH,C ET AL. (1995)",2.35
102575,619-05-6,619-05-6,[H]OC(=O)C1=C([H])C([H])=C(N([H])[H])C(N([H])[H])=C1[H],"BENZOIC ACID, 3,4-DIAMINO-","3,4-Diaminobenzoic acid","3,4-Diaminobenzoic acid",7166,DTXSID00210920,Nc1cc(ccc1N)C(O)=O,"InChI=1S/C7H8N2O2/c8-5-2-1-4(7(10)11)3-6(5)9/h1-3H,8-9H2,(H,10,11)",HEMGYNNCNNODNX-UHFFFAOYSA-N,?,,SANGSTER (1994),0.13
102576,619-14-7,619-14-7,[H]OC(=O)C1=C([H])C([H])=C([N+](=O)[O-])C(O[H])=C1[H],3-HYDROXY-4-NITROBENZOIC ACID,3-Hydroxy-4-nitrobenzoic acid,3-Hydroxy-4-nitrobenzoic acid,7167,DTXSID20210922,[O-][N+](=O)c1ccc(cc1O)C(O)=O,"InChI=1S/C7H5NO5/c9-6-3-4(7(10)11)1-2-5(6)8(12)13/h1-3,9H,(H,10,11)",XLDLRRGZWIEEHT-UHFFFAOYSA-N,?,,BIOBYTE (1995),1.98
102577,619-17-0,619-17-0,[H]OC(=O)C1=C([H])C([H])=C([N+](=O)[O-])C([H])=C1N([H])[H],2-AMINO-4-NITROBENZOIC ACID,4-Nitroanthranilic acid,2-amino-4-nitrobenzoic acid,7168,DTXSID8020963,Nc1cc(ccc1C(O)=O)[N+]([O-])=O,"InChI=1S/C7H6N2O4/c8-6-3-4(9(12)13)1-2-5(6)7(10)11/h1-3H,8H2,(H,10,11)",UEALKTCRMBVTFN-UHFFFAOYSA-N,?,,"HANSCH,C ET AL. (1995)",1.91
102579,619-25-0,619-25-0,[H]OC([H])([H])C1=C([H])C([H])=C([H])C([N+](=O)[O-])=C1[H],M-NITROBENZYL ALCOHOL,"Benzenemethanol, 3-nitro-",(3-nitrophenyl)methanol,7170,DTXSID0060698,[O-][N+](=O)c1cccc(CO)c1,"InChI=1S/C7H7NO3/c9-5-6-2-1-3-7(4-6)8(10)11/h1-4,9H,5H2",CWNPOQFCIIFQDM-UHFFFAOYSA-N,?,,"HANSCH,C ET AL. (1995)",1.21
102580,619-31-8,619-31-8,[H]C1=C([H])C([N+](=O)[O-])=C([H])C(N(C([H])([H])[H])C([H])([H])[H])=C1[H],"BENZENAMINE, N,N-DIMETHYL-3-NITRO-","Benzenamine, N,N-dimethyl-3-nitro-","N,N-Dimethyl-3-nitroaniline",7171,DTXSID5060699,CN(C)c1cc(ccc1)[N+]([O-])=O,"InChI=1S/C8H10N2O2/c1-9(2)7-4-3-5-8(6-7)10(11)12/h3-6H,1-2H3",CJDICMLSLYHRPT-UHFFFAOYSA-N,?,,"KRAMER,CR & HENZE,U (1990)",2.16
102581,619-42-1,619-42-1,[H]C1=C([H])C(C(=O)OC([H])([H])[H])=C([H])C([H])=C1Br,"BENZOIC ACID, 4-BROMO-, METHYL ESTER","Benzoic acid, 4-bromo-, methyl ester",Methyl 4-bromobenzoate,7172,DTXSID7060702,COC(=O)c1ccc(Br)cc1,"InChI=1S/C8H7BrO2/c1-11-8(10)6-2-4-7(9)5-3-6/h2-5H,1H3",CZNGTXVOZOWWKM-UHFFFAOYSA-N,?,,"SOTOMATSU,T ET AL. (1993)",2.95
102583,619-50-1,619-50-1,[H]C1=C([H])C([N+](=O)[O-])=C([H])C([H])=C1C(=O)OC([H])([H])[H],METHYL P-NITROBENZOATE,Methyl p-nitrobenzoate,methyl 4-nitrobenzoate,7174,DTXSID3022085,COC(=O)c1ccc(cc1)[N+]([O-])=O,"InChI=1S/C8H7NO4/c1-13-8(10)6-2-4-7(5-3-6)9(11)12/h2-5H,1H3",YOJAHJGBFDPSDI-UHFFFAOYSA-N,?,,"SOTOMATSU,T ET AL. (1993)",1.89
102584,619-55-6,619-55-6,[H]C1=C([H])C(C([H])([H])[H])=C([H])C([H])=C1C(=O)N([H])[H],4-METHYLBENZAMIDE,"Benzamide, 4-methyl-",4-Methylbenzamide,7175,DTXSID2060705,Cc1ccc(cc1)C(N)=O,"InChI=1S/C8H9NO/c1-6-2-4-7(5-3-6)8(9)10/h2-5H,1H3,(H2,9,10)",UHBGYFCCKRAEHA-UHFFFAOYSA-N,?,,"HANSCH,C ET AL. (1995)",1.18
102585,619-56-7,619-56-7,[H]C1=C([H])C(C(=O)N([H])[H])=C([H])C([H])=C1Cl,4-CHLOROBENZAMIDE,4-Chlorobenzamide,4-Chlorobenzamide,7176,DTXSID50210930,NC(=O)c1ccc(Cl)cc1,"InChI=1S/C7H6ClNO/c8-6-3-1-5(2-4-6)7(9)10/h1-4H,(H2,9,10)",BLNVISNJTIRAHF-UHFFFAOYSA-N,?,,"HANSCH,C ET AL. (1995)",1.55
102587,619-58-9,NOCAS_862304,[H]OC(=O)C1=C([H])C([H])=C(I)C([H])=C1[H],4-IODOBENZOIC ACID,,,7178,DTXSID20862304,OC(=O)c1ccc(I)cc1,"InChI=1S/C7H5IO2/c8-6-3-1-5(2-4-6)7(9)10/h1-4H,(H,9,10)",GHICCUXQJBDNRN-UHFFFAOYSA-N,?,,"HANSCH,C ET AL. (1995)",3.02
102588,619-64-7,619-64-7,[H]OC(=O)C1=C([H])C([H])=C(C([H])([H])C([H])([H])[H])C([H])=C1[H],4-ETHYLBENZOIC ACID,"Benzoic acid, 4-ethyl-",4-ETHYLBENZOIC ACID,7179,DTXSID3073212,CCc1ccc(cc1)C(O)=O,"InChI=1S/C9H10O2/c1-2-7-3-5-8(6-4-7)9(10)11/h3-6H,2H2,1H3,(H,10,11)",ZQVKTHRQIXSMGY-UHFFFAOYSA-N,?,,"DA,YZ ET AL. (1992)",2.89
102589,619-65-8,619-65-8,[H]OC(=O)C1=C([H])C([H])=C(C#N)C([H])=C1[H],P-CYANOBENZOIC ACID,4-Cyanobenzoic acid,C8H5NO2,7180,DTXSID9041659,N#Cc1ccc(cc1)C(O)=O,"InChI=1S/C8H5NO2/c9-5-6-1-3-7(4-2-6)8(10)11/h1-4H,(H,10,11)",ADCUEPOHPCPMCE-UHFFFAOYSA-N,?,,"HANSCH,C ET AL. (1995)",1.56
102591,619-72-7,619-72-7,[H]C1=C([H])C([N+](=O)[O-])=C([H])C([H])=C1C#N,1-NITRO-4-CYANOBENZENE,"Benzonitrile, 4-nitro-",4-Nitrobenzonitrile,7182,DTXSID7060706,N#Cc1ccc(cc1)[N+]([O-])=O,InChI=1S/C7H4N2O2/c8-5-6-1-3-7(4-2-6)9(10)11/h1-4H,NKJIFDNZPGLLSH-UHFFFAOYSA-N,?,,"HANSCH,C ET AL. (1995)",1.19