ChemID,source_casrn,CAS,SMILES,NAME,preferred_name,iupac,MPID,dsstox_substance_id,Canonical_QSARr,InChI_Code_QSARr,InChI Key_QSARr,Salt_Solvent,Salt_Solvent_ID,Kow Reference,LogP
101854,371-62-0,371-62-0,[H]OC([H])([H])C([H])([H])F,2-FLUOROETHANOL,2-Fluoroethanol,2-Fluoroethanol,6470,DTXSID0059902,OCCF,"InChI=1S/C2H5FO/c3-1-2-4/h4H,1-2H2",GGDYAKVUZMZKRV-UHFFFAOYSA-N,?,,"HANSCH,C ET AL. (1995)",-0.67
101855,372-09-8,372-09-8,[H]OC(=O)C([H])([H])C#N,CYANOACETIC ACID,Cyanoacetic acid,cyanoacetic acid,6471,DTXSID0027149,N#CCC(O)=O,"InChI=1S/C3H3NO2/c4-2-1-3(5)6/h1H2,(H,5,6)",MLIREBYILWEBDM-UHFFFAOYSA-N,?,,"HANSCH,C ET AL. (1995)",-0.76
101857,372-19-0,372-19-0,[H]C1=C([H])C(N([H])[H])=C([H])C(F)=C1[H],3-FLUOROANILINE,3-Fluoroaniline,3-Fluoroaniline,6473,DTXSID10190683,Nc1cc(F)ccc1,"InChI=1S/C6H6FN/c7-5-2-1-3-6(8)4-5/h1-4H,8H2",QZVQQUVWFIZUBQ-UHFFFAOYSA-N,?,,"HANSCH,C ET AL. (1995)",1.3
101858,372-20-3,372-20-3,[H]OC1=C([H])C(F)=C([H])C([H])=C1[H],M-FLUOROPHENOL,3-Fluorophenol,3-Fluorophenol,6474,DTXSID70190684,Oc1cc(F)ccc1,"InChI=1S/C6H5FO/c7-5-2-1-3-6(8)4-5/h1-4,8H",SJTBRFHBXDZMPS-UHFFFAOYSA-N,?,,"HANSCH,C ET AL. (1995)",1.93
101859,372-47-4,372-47-4,[H]C1=NC([H])=C(F)C([H])=C1[H],3-FLUOROPYRIDINE,3-Fluoropyridine,3-Fluoropyridine,6475,DTXSID10190688,Fc1c[n]ccc1,InChI=1S/C5H4FN/c6-5-2-1-3-7-4-5/h1-4H,CELKOWQJPVJKIL-UHFFFAOYSA-N,?,,"HANSCH,C ET AL. (1995)",0.77
101861,372-75-8,13594-51-9,[H]OC(=O)C([H])(N([H])[H])C([H])([H])C([H])([H])C([H])([H])N([H])C(=O)N([H])[H],"L-ORNITHINE, N5-(AMINOCARBONYL)-",D-Citrulline,C6H13N3O3,6477,DTXSID90348463,NC(=O)NCCCC(N)C(O)=O,"InChI=1S/C6H13N3O3/c7-4(5(10)11)2-1-3-9-6(8)12/h4H,1-3,7H2,(H,10,11)(H3,8,9,12)",RHGKLRLOHDJJDR-UHFFFAOYSA-N,?,,SANGSTER (1994),-3.19
101862,374-01-6,374-01-6,[H]OC([H])(C([H])([H])[H])C(F)(F)F,"1,1,1-TRIFLUORO-2-PROPANOL",3539-97-7,C3H5F3O,6478,DTXSID20870520,CC(O)C(F)(F)F,"InChI=1S/C3H5F3O/c1-2(7)3(4,5)6/h2,7H,1H3",GILIYJDBJZWGBG-UHFFFAOYSA-N,?,,"HANSCH,C ET AL. (1995)",0.71
101863,375-01-9,375-01-9,[H]OC([H])([H])C(F)(F)C(F)(F)C(F)(F)F,"2,2,3,3,4,4,-HEPTAFLUOROBUTANOL","1-Butanol, 2,2,3,3,4,4,4-heptafluoro-","2,2,3,3,4,4,4-Heptafluorobutan-1-ol",6479,DTXSID4059914,OCC(F)(F)C(F)(F)C(F)(F)F,"InChI=1S/C4H3F7O/c5-2(6,1-12)3(7,8)4(9,10)11/h12H,1H2",WXJFKAZDSQLPBX-UHFFFAOYSA-N,?,,"HANSCH,C ET AL. (1995)",1.94
101866,383-63-1,383-63-1,[H]C([H])([H])C([H])([H])OC(=O)C(F)(F)F,TRIFLUOROETHYL ACETATE,Ethyl trifluoroacetate,ethyl trifluoroacetate,6482,DTXSID8041959,CCOC(=O)C(F)(F)F,"InChI=1S/C4H5F3O2/c1-2-9-3(8)4(5,6)7/h2H2,1H3",STSCVKRWJPWALQ-UHFFFAOYSA-N,?,,"HANSCH,C ET AL. (1995)",1.18
101867,384-22-5,384-22-5,[H]C1=C([H])C([N+](=O)[O-])=C(C(F)(F)F)C([H])=C1[H],1-NO2 2-CF3 BENZENE,1-Nitro-2-(trifluoromethyl)benzene,1-nitro-2-(trifluoromethyl)benzene,6483,DTXSID4025793,[O-][N+](=O)c1ccccc1C(F)(F)F,"InChI=1S/C7H4F3NO2/c8-7(9,10)5-3-1-2-4-6(5)11(12)13/h1-4H",NDZJSUCUYPZXPR-UHFFFAOYSA-N,?,,"HANSCH,C ET AL. (1995)",2.58
101868,384-97-4,384-97-4,[H]C1=C([H])C(C([H])(C2=C([H])C([H])=C(OC([H])([H])[H])C([H])=C2[H])C(F)(F)F)=C([H])C([H])=C1OC([H])([H])[H],111F3-22-DI(P-MEOPHENYL)ETHANE,PUBCHEM_13238895,C16H15F3O2,6484,DTXSID00531147,COc1ccc(cc1)C(c1ccc(cc1)OC)C(F)(F)F,"InChI=1S/C16H15F3O2/c1-20-13-7-3-11(4-8-13)15(16(17,18)19)12-5-9-14(21-2)10-6-12/h3-10,15H,1-2H3",YZYLIFPICMLCKO-UHFFFAOYSA-N,?,,"HANSCH,C ET AL. (1995)",4.76
101870,389-08-2,389-08-2,[H]OC(=O)C1=C([H])N(C([H])([H])C([H])([H])[H])C2=NC(C([H])([H])[H])=C([H])C([H])=C2C1=O,NALIDIXIC ACID,Nalidixic acid,"1-ethyl-7-methyl-4-oxo-1,4-dihydro-1,8-naphthyridine-3-carboxylic acid",6486,DTXSID3020912,Cc1ccc2c([n]1)N(CC)C=C(C(O)=O)C2=O,"InChI=1S/C12H12N2O3/c1-3-14-6-9(12(16)17)10(15)8-5-4-7(2)13-11(8)14/h4-6H,3H2,1-2H3,(H,16,17)",MHWLWQUZZRMNGJ-UHFFFAOYSA-N,?,,BIOBYTE (1995),1.59
101871,392-56-3,392-56-3,FC1=C(F)C(F)=C(F)C(F)=C1F,HEXAFLUOROBENZENE,Hexafluorobenzene,hexafluorobenzene,6487,DTXSID5043924,Fc1c(F)c(F)c(F)c(F)c1F,InChI=1S/C6F6/c7-1-2(8)4(10)6(12)5(11)3(1)9,ZQBFAOFFOQMSGJ-UHFFFAOYSA-N,?,,"HANSCH,C ET AL. (1995)",2.55
101872,393-75-9,393-75-9,[H]C1=C([N+](=O)[O-])C(Cl)=C([N+](=O)[O-])C([H])=C1C(F)(F)F,"1,3-DINO2 2-CL 5-CF3 BENZENE","2-Chloro-1,3-dinitro-5-(trifluoromethyl)benzene","2-chloro-1,3-dinitro-5-(trifluoromethyl)benzene",6488,DTXSID8024781,[O-][N+](=O)c1cc(cc(c1Cl)[N+]([O-])=O)C(F)(F)F,"InChI=1S/C7H2ClF3N2O4/c8-6-4(12(14)15)1-3(7(9,10)11)2-5(6)13(16)17/h1-2H",HFHAVERNVFNSHL-UHFFFAOYSA-N,?,,"NAKAGAWA,Y ET AL. (1992)",2.5
101874,394-68-3,394-68-3,[H]C1=C([H])C([H])=C2C(=N1)C(F)=C([H])C([H])=C2[H],8-FLUOROQUINOLINE,"Quinoline, 8-fluoro-",8-Fluoroquinoline,6490,DTXSID60192591,Fc1cccc2ccc[n]c21,InChI=1S/C9H6FN/c10-8-5-1-3-7-4-2-6-11-9(7)8/h1-6H,RNAAXKYOTPSFGV-UHFFFAOYSA-N,?,,"HANSCH,C ET AL. (1995)",2.19
101875,395-36-8,395-36-8,[H]C1=C([H])C(N([H])C(=O)C([H])([H])[H])=C(F)C(Cl)=C1[H],2-Fluoro-3-chloroacetanilide,3'-Chloro-2'-fluoroacetanilide,C8H7ClFNO,6491,DTXSID60307300,CC(=O)Nc1cccc(Cl)c1F,"InChI=1S/C8H7ClFNO/c1-5(12)11-7-4-2-3-6(9)8(7)10/h2-4H,1H3,(H,11,12)",CBJRXPIMTXGGAT-UHFFFAOYSA-N,?,,"NAKAGAWA,Y ET AL. (1992)",1.83
101876,396-01-0,396-01-0,[H]C1=C([H])C([H])=C(C2=C(N([H])[H])N=C3N=C(N([H])[H])N=C(N([H])[H])C3=N2)C([H])=C1[H],"2,4,7-TRIAMINO-6-PHENYL PTERIDINE",Triamterene,"6-phenylpteridine-2,4,7-triamine",6492,DTXSID6021373,Nc1[n]c(N)[n]c2[n]c(N)c([n]c12)-c1ccccc1,"InChI=1S/C12H11N7/c13-9-7(6-4-2-1-3-5-6)16-8-10(14)18-12(15)19-11(8)17-9/h1-5H,(H6,13,14,15,17,18,19)",FNYLWPVRPXGIIP-UHFFFAOYSA-N,?,,"HANSCH,C ET AL. (1995)",0.98
101878,400-99-7,400-99-7,[H]OC1=C([H])C([H])=C(C(F)(F)F)C([H])=C1[N+](=O)[O-],4-TRIFLUOROMETHYL-2-NITROPHENOL,"Phenol, 2-nitro-4-(trifluoromethyl)-",2-Nitro-4-(trifluoromethyl)phenol,6494,DTXSID6059946,[O-][N+](=O)c1cc(ccc1O)C(F)(F)F,"InChI=1S/C7H4F3NO3/c8-7(9,10)4-1-2-6(12)5(3-4)11(13)14/h1-3,12H",XZEDEVRSUANQEM-UHFFFAOYSA-N,?,,"SCHWARZENBACH,RP ET AL. (1988)",2.34
101879,402-31-3,402-31-3,[H]C1=C([H])C(C(F)(F)F)=C([H])C(C(F)(F)F)=C1[H],"BENZENE, 1,3-BIS(TRIFLUOROMETHYL)-","Benzene, 1,3-bis(trifluoromethyl)-","1,3-BIS(TRIFLUOROMETHYL)BENZENE",6495,DTXSID1059949,FC(F)(F)c1cc(ccc1)C(F)(F)F,"InChI=1S/C8H4F6/c9-7(10,11)5-2-1-3-6(4-5)8(12,13)14/h1-4H",SJBBXFLOLUTGCW-UHFFFAOYSA-N,?,,"HANSCH,C ET AL. (1995)",3.83
101880,402-38-0,402-38-0,[H]C1=C([H])C(C(F)(F)F)=C([H])C(/N=N/N(C([H])([H])[H])C([H])([H])[H])=C1[H],"3,3-DIME-1-(3-CF3 PH)TRIAZENE",,,6496,DTXSID10879446,CN(C)N=Nc1cc(ccc1)C(F)(F)F,"InChI=1S/C9H10F3N3/c1-15(2)14-13-8-5-3-4-7(6-8)9(10,11)12/h3-6H,1-2H3/b14-13+",LYDULXUBCSVHIU-BUHFOSPRSA-N,?,,"HANSCH,C ET AL. (1995)",3.78
101882,402-54-0,402-54-0,[H]C1=C([H])C(C(F)(F)F)=C([H])C([H])=C1[N+](=O)[O-],"BENZENE, 1-NITRO-4-(TRIFLUOROMETHYL)-","Benzene, 1-nitro-4-(trifluoromethyl)-",1-nitro-4-(trifluoromethyl)benzene,6498,DTXSID0075281,[O-][N+](=O)c1ccc(cc1)C(F)(F)F,"InChI=1S/C7H4F3NO2/c8-7(9,10)5-1-3-6(4-2-5)11(12)13/h1-4H",XKYLCLMYQDFGKO-UHFFFAOYSA-N,?,,POMONA (1987),2.55
101883,402-67-5,402-67-5,[H]C1=C([H])C([N+](=O)[O-])=C([H])C(F)=C1[H],3-FLUORONITROBENZENE,1-Fluoro-3-nitrobenzene,1-Fluoro-3-nitrobenzene,6499,DTXSID20193201,[O-][N+](=O)c1cccc(F)c1,InChI=1S/C6H4FNO2/c7-5-2-1-3-6(4-5)8(9)10/h1-4H,WMASLRCNNKMRFP-UHFFFAOYSA-N,?,,"HANSCH,C ET AL. (1995)",1.9
101884,403-33-8,403-33-8,[H]C1=C([H])C(C(=O)OC([H])([H])[H])=C([H])C([H])=C1F,"BENZOIC ACID, 4-FLUORO-, METHYL ESTER",Methyl 4-fluorobenzoate,Methyl 4-fluorobenzoate,6500,DTXSID40193309,COC(=O)c1ccc(F)cc1,"InChI=1S/C8H7FO2/c1-11-8(10)6-2-4-7(9)5-3-6/h2-5H,1H3",MSEBQGULDWDIRW-UHFFFAOYSA-N,?,,"SOTOMATSU,T ET AL. (1993)",2.28
101886,403-54-3,403-54-3,[H]C1=C([H])C(C#N)=C([H])C(F)=C1[H],"BENZONITRILE, 3-FLUORO-","Benzonitrile, 3-fluoro-",3-Fluorobenzonitrile,6502,DTXSID0059954,N#Cc1cccc(F)c1,InChI=1S/C7H4FN/c8-7-3-1-2-6(4-7)5-9/h1-4H,JZTPKAROPNTQQV-UHFFFAOYSA-N,?,,"HANSCH,C ET AL. (1995)",1.47
101887,404-24-0,404-24-0,[H]C1=C([H])C([H])=C(N([H])C(=O)C(F)(F)F)C([H])=C1[H],TRIFLUOROACETANILIDE,Trifluoroacetanilide,"2,2,2-Trifluoro-N-phenylacetamide",6503,DTXSID30193398,O=C(Nc1ccccc1)C(F)(F)F,"InChI=1S/C8H6F3NO/c9-8(10,11)7(13)12-6-4-2-1-3-5-6/h1-5H,(H,12,13)",SAPQIENQEZURNZ-UHFFFAOYSA-N,?,,"HANSCH,C ET AL. (1995)",2.21
101888,404-98-8,404-98-8,[H]OC(=O)C([H])([H])OC1=C([H])C(F)=C([H])C([H])=C1[H],M-FLUOROPHENOXYACETIC ACID,(3-Fluoro-phenoxy)-acetic acid,C8H7FO3,6504,DTXSID00364255,OC(=O)COc1cccc(F)c1,"InChI=1S/C8H7FO3/c9-6-2-1-3-7(4-6)12-5-8(10)11/h1-4H,5H2,(H,10,11)",DMYZZZCPJOWSNT-UHFFFAOYSA-N,?,,"HANSCH,C ET AL. (1995)",1.48
101890,405-79-8,405-79-8,[H]OC(=O)C([H])([H])OC1=C([H])C([H])=C(F)C([H])=C1[H],P-FLUOROPHENOXYACETIC ACID,4-Fluorophenoxyacetic acid,2-(4-fluorophenoxy)acetic acid,6506,DTXSID30193510,OC(=O)COc1ccc(F)cc1,"InChI=1S/C8H7FO3/c9-6-1-3-7(4-2-6)12-5-8(10)11/h1-4H,5H2,(H,10,11)",ZBIULCVFFJJYTN-UHFFFAOYSA-N,?,,"HANSCH,C ET AL. (1995)",1.64
101891,420-04-2,420-04-2,[H]N([H])C#N,CYANAMIDE,Cyanamide,cyanamide,6507,DTXSID9034490,NC#N,InChI=1S/CH2N2/c2-1-3/h2H2,XZMCDFZZKTWFGF-UHFFFAOYSA-N,?,,"TOMLIN,C (2003)",-0.82
101892,421-50-1,421-50-1,[H]C([H])([H])C(=O)C(F)(F)F,"1,1,1-TRIFLUOROACETONE","2-Propanone, 1,1,1-trifluoro-","1,1,1-trifluoropropan-2-one",6508,DTXSID9059963,CC(=O)C(F)(F)F,"InChI=1S/C3H3F3O/c1-2(7)3(4,5)6/h1H3",FHUDAMLDXFJHJE-UHFFFAOYSA-N,?,,"HANSCH,C ET AL. (1995)",0.2
101894,425-32-1,425-32-1,[H]C1=C([H])C([H])=C(C(F)(F)C(F)(F)C2=C([H])C([H])=C([H])C([H])=C2[H])C([H])=C1[H],"Benzene, 1,1'-(1,1,2,2-tetrafluoro-1,2-ethanediy","Benzene, 1,1'-(1,1,2,2-tetrafluoro-1,2-ethanediyl)bis-","(1,1,2,2-tetrafluoro-2-phenylethyl)benzene",6510,DTXSID20195280,FC(F)(c1ccccc1)C(F)(F)c1ccccc1,"InChI=1S/C14H10F4/c15-13(16,11-7-3-1-4-8-11)14(17,18)12-9-5-2-6-10-12/h1-10H",OVEWNBYMFPGNRR-UHFFFAOYSA-N,?,,SANGSTER (1993),5.0
101895,426-13-1,426-13-1,[H]OC1([H])C([H])([H])C2(C([H])([H])[H])C(O[H])(C(=O)C([H])([H])[H])C([H])([H])C([H])([H])C2([H])C2([H])C([H])([H])C([H])(C([H])([H])[H])C3=C([H])C(=O)C([H])=C([H])C3(C([H])([H])[H])C12F,FLUOROMETHALONE,Fluorometholone,"(6alpha,11beta)-9-fluoro-11,17-dihydroxy-6-methylpregna-1,4-diene-3,20-dione",6511,DTXSID7047435,CC(=O)C1(O)CCC2C3CC(C)C4=CC(=O)C=CC4(C)C3(F)C(O)CC12C,"InChI=1S/C22H29FO4/c1-12-9-17-15-6-8-21(27,13(2)24)20(15,4)11-18(26)22(17,23)19(3)7-5-14(25)10-16(12)19/h5,7,10,12,15,17-18,26-27H,6,8-9,11H2,1-4H3",FAOZLTXFLGPHNG-UHFFFAOYSA-N,?,,"HANSCH,C ET AL. (1995)",2.0
101896,426-58-4,426-58-4,[H]C1=C([H])C([H])=C(S(=O)(=O)C(F)(F)F)C([H])=C1[H],"SULFONE,PHENYL-TRIFLUOROMETHYL",,,6512,DTXSID90879040,O=S(=O)(c1ccccc1)C(F)(F)F,"InChI=1S/C7H5F3O2S/c8-7(9,10)13(11,12)6-4-2-1-3-5-6/h1-5H",UPGBQYFXKAKWQC-UHFFFAOYSA-N,?,,BIOBYTE STARLIST (2009),2.68
101898,430-51-3,430-51-3,[H]C([H])([H])C(=O)C([H])([H])F,FLUOROACETONE,Fluoroacetone,1-fluoropropan-2-one,6514,DTXSID70195619,CC(=O)CF,"InChI=1S/C3H5FO/c1-3(5)2-4/h2H2,1H3",MSWVMWGCNZQPIA-UHFFFAOYSA-N,?,,"HANSCH,C ET AL. (1995)",-0.39
101899,431-03-8,431-03-8,[H]C([H])([H])C(=O)C(=O)C([H])([H])[H],"2,3-BUTANEDIONE","2,3-Butanedione","butane-2,3-dione",6515,DTXSID6021583,CC(=O)C(C)=O,InChI=1S/C4H6O2/c1-3(5)4(2)6/h1-2H3,QSJXEFYPDANLFS-UHFFFAOYSA-N,?,,"HANSCH,C ET AL. (1995)",-1.34
101900,431-47-0,431-47-0,[H]C([H])([H])OC(=O)C(F)(F)F,METHYLTRIFLUOROACETATE,"Acetic acid, trifluoro-, methyl ester","methyl 2,2,2-trifluoroacetate",6516,DTXSID2059988,COC(=O)C(F)(F)F,"InChI=1S/C3H3F3O2/c1-8-2(7)3(4,5)6/h1H3",VMVNZNXAVJHNDJ-UHFFFAOYSA-N,?,,"HANSCH,C ET AL. (1995)",0.6
101902,433-19-2,433-19-2,[H]C1=C([H])C(C(F)(F)F)=C([H])C([H])=C1C(F)(F)F,"BENZENE, 1,4-BIS(TRIFLUOROMETHYL)-","1,4-Bis(trifluoromethyl)benzene","1,4-BIS(TRIFLUOROMETHYL)BENZENE",6518,DTXSID1059991,FC(F)(F)c1ccc(cc1)C(F)(F)F,"InChI=1S/C8H4F6/c9-7(10,11)5-1-2-6(4-3-5)8(12,13)14/h1-4H",PDCBZHHORLHNCZ-UHFFFAOYSA-N,?,,"HANSCH,C ET AL. (1995)",3.83
101903,434-03-7,434-03-7,[H]C#CC1(O[H])C([H])([H])C([H])([H])C2([H])C3([H])C([H])([H])C([H])([H])C4=C([H])C(=O)C([H])([H])C([H])([H])C4(C([H])([H])[H])C3([H])C([H])([H])C([H])([H])C12C([H])([H])[H],Ethisterone,Ethisterone,(17alpha)-17-hydroxypregn-4-en-20-yn-3-one,6519,DTXSID2023016,CC12CCC3C(CCC4=CC(=O)CCC43C)C1CCC2(O)C#C,"InChI=1S/C21H28O2/c1-4-21(23)12-9-18-16-6-5-14-13-15(22)7-10-19(14,2)17(16)8-11-20(18,21)3/h1,13,16-18,23H,5-12H2,2-3H3",CHNXZKVNWQUJIB-UHFFFAOYSA-N,?,,"HANSCH,C ET AL. (1995)",3.11
101904,434-22-0,434-22-0,[H]OC1([H])C([H])([H])C([H])([H])C2([H])C3([H])C([H])([H])C([H])([H])C4=C([H])C(=O)C([H])([H])C([H])([H])C4([H])C3([H])C([H])([H])C([H])([H])C12C([H])([H])[H],NANDROLONE,Nandrolone,(17beta)-17-hydroxyestr-4-en-3-one,6520,DTXSID7023350,CC12CCC3C4CCC(=O)C=C4CCC3C1CCC2O,"InChI=1S/C18H26O2/c1-18-9-8-14-13-5-3-12(19)10-11(13)2-4-15(14)16(18)6-7-17(18)20/h10,13-17,20H,2-9H2,1H3",NPAGDVCDWIYMMC-UHFFFAOYSA-N,?,,"HANSCH,C ET AL. (1995)",2.62
101906,434-75-3,434-75-3,[H]OC(=O)C1=C(F)C([H])=C([H])C([H])=C1Cl,"BENZOIC ACID, 2-CHLORO-6-FLUORO-",2-Chloro-6-fluorobenzoic acid,2-Chloro-6-fluorobenzoic acid,6522,DTXSID20195841,OC(=O)c1c(F)cccc1Cl,"InChI=1S/C7H4ClFO2/c8-4-2-1-3-5(9)6(4)7(10)11/h1-3H,(H,10,11)",XNTIGDVFBDJLTQ-UHFFFAOYSA-N,?,,"HANSCH,C ET AL. (1995)",2.11
101907,435-97-2,435-97-2,[H]OC1=C(C([H])(C2=C([H])C([H])=C([H])C([H])=C2[H])C([H])([H])C([H])([H])[H])C(=O)OC2=C1C([H])=C([H])C([H])=C2[H],PHENPROCOUMON,Phenprocoumon,4-hydroxy-3-(1-phenylpropyl)-2H-chromen-2-one,6523,DTXSID5023459,CCC(C1=C(O)c2ccccc2OC1=O)c1ccccc1,"InChI=1S/C18H16O3/c1-2-13(12-8-4-3-5-9-12)16-17(19)14-10-6-7-11-15(14)21-18(16)20/h3-11,13,19H,2H2,1H3",DQDAYGNAKTZFIW-UHFFFAOYSA-N,?,,"HANSCH,C ET AL. (1995)",3.62
101908,437-38-7,437-38-7,[H]C1=C([H])C([H])=C(N(C(=O)C([H])([H])C([H])([H])[H])C2([H])C([H])([H])C([H])([H])N(C([H])([H])C([H])([H])C3=C([H])C([H])=C([H])C([H])=C3[H])C([H])([H])C2([H])[H])C([H])=C1[H],FENTANYL,Fentanyl,N-phenyl-N-[1-(2-phenylethyl)piperidin-4-yl]propanamide,6524,DTXSID9023049,CCC(=O)N(C1CCN(CCc2ccccc2)CC1)c1ccccc1,"InChI=1S/C22H28N2O/c1-2-22(25)24(20-11-7-4-8-12-20)21-14-17-23(18-15-21)16-13-19-9-5-3-6-10-19/h3-12,21H,2,13-18H2,1H3",PJMPHNIQZUBGLI-UHFFFAOYSA-N,?,,SANGSTER (1993),4.05
101910,442-51-3,442-51-3,[H]C1=NC(C([H])([H])[H])=C2C(=C1[H])C1=C([H])C([H])=C(OC([H])([H])[H])C([H])=C1N2[H],"9H-PYRIDO[3,4-B]INDOLE-, 7-METHOXY-1-METHYL-",Harmine,"7-Methoxy-1-methyl-9H-pyrido[3,4-b]indole",6526,DTXSID30196066,Cc1[n]ccc2c1[nH]c1cc(ccc21)OC,"InChI=1S/C13H12N2O/c1-8-13-11(5-6-14-8)10-4-3-9(16-2)7-12(10)15-13/h3-7,15H,1-2H3",BXNJHAXVSOCGBA-UHFFFAOYSA-N,?,,SANGSTER (1994),3.56
101911,443-48-1,443-48-1,[H]OC([H])([H])C([H])([H])N1C(C([H])([H])[H])=NC([H])=C1[N+](=O)[O-],METRONIDAZOLE,Metronidazole,2-(2-methyl-5-nitro-1H-imidazol-1-yl)ethanol,6527,DTXSID2020892,Cc1[n]cc([n]1CCO)[N+]([O-])=O,"InChI=1S/C6H9N3O3/c1-5-7-4-6(9(11)12)8(5)2-3-10/h4,10H,2-3H2,1H3",VAOCPAMSLUNLGC-UHFFFAOYSA-N,?,,"HANSCH,C ET AL. (1995)",-0.02
101912,444-30-4,444-30-4,[H]OC1=C(C(F)(F)F)C([H])=C([H])C([H])=C1[H],O-TRIFLUOROMETHYLPHENOL,2-(Trifluoromethyl)phenol,2-(Trifluoromethyl)phenol,6528,DTXSID0074849,Oc1ccccc1C(F)(F)F,"InChI=1S/C7H5F3O/c8-7(9,10)5-3-1-2-4-6(5)11/h1-4,11H",ZOQOPXVJANRGJZ-UHFFFAOYSA-N,?,,"HANSCH,C ET AL. (1995)",2.8
101914,445-29-4,445-29-4,[H]OC(=O)C1=C(F)C([H])=C([H])C([H])=C1[H],2-FLUOROBENZOIC ACID,"Benzoic acid, 2-fluoro-",2-Fluorobenzoic acid,6530,DTXSID1060001,OC(=O)c1ccccc1F,"InChI=1S/C7H5FO2/c8-6-4-2-1-3-5(6)7(9)10/h1-4H,(H,9,10)",NSTREUWFTAOOKS-UHFFFAOYSA-N,?,,"HANSCH,C ET AL. (1995)",1.77
101915,445-66-9,445-66-9,[H]C1=C([N+](=O)[O-])C(N([H])[H])=C([N+](=O)[O-])C([H])=C1C(F)(F)F,"2,6-NITRO-4-TRIFLUORO-ANILINE","2,6-Dinitro-4-(trifluoromethyl)aniline","2,6-dinitro-4-(trifluoromethyl)aniline",6531,DTXSID70196202,Nc1c(cc(cc1[N+]([O-])=O)C(F)(F)F)[N+]([O-])=O,"InChI=1S/C7H4F3N3O4/c8-7(9,10)3-1-4(12(14)15)6(11)5(2-3)13(16)17/h1-2H,11H2",VACNDKUQVLNNLD-UHFFFAOYSA-N,?,,"HANSCH,C ET AL. (1995)",2.29
101916,446-31-1,446-31-1,[H]OC(=O)C1=C([H])C([H])=C(N([H])[H])C([H])=C1F,2-FLUORO-4-AMINOBENZOIC ACID,4-Amino-2-fluorobenzoic acid,C7H6FNO2,6532,DTXSID00307208,Nc1ccc(C(O)=O)c(F)c1,"InChI=1S/C7H6FNO2/c8-6-3-4(9)1-2-5(6)7(10)11/h1-3H,9H2,(H,10,11)",QHERSCUZBKDVOC-UHFFFAOYSA-N,?,,"HANSCH,C ET AL. (1995)",1.29
101918,446-51-5,446-51-5,[H]OC([H])([H])C1=C([H])C([H])=C([H])C([H])=C1F,"BENZENEMETHANOL, 2-FLUORO-",2-Fluorobenzylic alcohol,(2-fluorophenyl)methanol,6534,DTXSID10196241,OCc1ccccc1F,"InChI=1S/C7H7FO/c8-7-4-2-1-3-6(7)5-9/h1-4,9H,5H2",QEHXDOJPVIHUDO-UHFFFAOYSA-N,?,,"EL TAYAR,N ET AL. (1991)",1.31
101919,446-86-6,446-86-6,[H]C1=NC2=C(C(SC3=C([N+](=O)[O-])N=C([H])N3C([H])([H])[H])=N1)N([H])C([H])=N2,AZATHIOPRINE,Azathioprine,6-[(1-methyl-4-nitro-1H-imidazol-5-yl)sulfanyl]-7H-purine,6535,DTXSID4020119,C[n]1c[n]c(c1Sc1[n]c[n]c2[n]c[nH]c12)[N+]([O-])=O,"InChI=1S/C9H7N7O2S/c1-15-4-14-7(16(17)18)9(15)19-8-5-6(11-2-10-5)12-3-13-8/h2-4H,1H3,(H,10,11,12,13)",LMEKQMALGUDUQG-UHFFFAOYSA-N,?,,"HANSCH,C ET AL. (1995)",0.1
101920,451-13-8,451-13-8,[H]OC(=O)C([H])([H])C1=C([H])C(O[H])=C([H])C([H])=C1O[H],"BENZENEACETIC ACID, 2,5-DIHYDROXY-","Benzeneacetic acid, 2,5-dihydroxy-","2-(2,5-dihydroxyphenyl)acetic acid",6536,DTXSID1060005,Oc1cc(CC(O)=O)c(O)cc1,"InChI=1S/C8H8O4/c9-6-1-2-7(10)5(3-6)4-8(11)12/h1-3,9-10H,4H2,(H,11,12)",IGMNYECMUMZDDF-UHFFFAOYSA-N,?,,SANGSTER (1994),0.86
101922,451-82-1,451-82-1,[H]OC(=O)C([H])([H])C1=C([H])C([H])=C([H])C([H])=C1F,O-FLUOROPHENYLACETIC ACID,"Benzeneacetic acid, 2-fluoro-",2-(2-fluorophenyl)acetic acid,6538,DTXSID1060007,OC(=O)Cc1ccccc1F,"InChI=1S/C8H7FO2/c9-7-4-2-1-3-6(7)5-8(10)11/h1-4H,5H2,(H,10,11)",RPTRFSADOICSSK-UHFFFAOYSA-N,?,,"HANSCH,C ET AL. (1995)",1.5
101923,452-35-7,452-35-7,[H]C1=C([H])C(OC([H])([H])C([H])([H])[H])=C([H])C2=C1N=C(S(=O)(=O)N([H])[H])S2,ETHOXYZOLAMIDE,Ethoxzolamide,"6-ethoxy-1,3-benzothiazole-2-sulfonamide",6539,DTXSID1023021,CCOc1cc2[s]c([n]c2cc1)S(N)(=O)=O,"InChI=1S/C9H10N2O3S2/c1-2-14-6-3-4-7-8(5-6)15-9(11-7)16(10,12)13/h3-5H,2H2,1H3,(H2,10,12,13)",OUZWUKMCLIBBOG-UHFFFAOYSA-N,?,,"HANSCH,C ET AL. (1995)",2.01
101924,452-86-8,452-86-8,[H]OC1=C([H])C([H])=C(C([H])([H])[H])C([H])=C1O[H],"1,2-BENZENEDIOL, 4-METHYL-",4-Methylcatechol,"4-methylbenzene-1,2-diol",6540,DTXSID5020861,Cc1cc(O)c(O)cc1,"InChI=1S/C7H8O2/c1-5-2-3-6(8)7(9)4-5/h2-4,8-9H,1H3",ZBCATMYQYDCTIZ-UHFFFAOYSA-N,?,,"HANSCH,C ET AL. (1995)",1.37
101926,454-31-9,454-31-9,[H]C(F)(F)C(=O)OC([H])([H])C([H])([H])[H],"ACETIC ACID, DIFLUORO-, ETHYL ESTER","Acetic acid, difluoro-, ethyl ester","ethyl 2,2-difluoroacetate",6542,DTXSID0060010,CCOC(=O)C(F)F,"InChI=1S/C4H6F2O2/c1-2-8-4(7)3(5)6/h3H,2H2,1H3",GZKHDVAKKLTJPO-UHFFFAOYSA-N,?,,"HANSCH,C ET AL. (1995)",0.87
101927,454-89-7,454-89-7,[H]C(=O)C1=C([H])C([H])=C([H])C(C(F)(F)F)=C1[H],M-(TRIFLUOROMETHYL)BENZALDEHYDE,"alpha,alpha,alpha-Trifluoro-m-tolualdehyde",3-(trifluoromethyl)benzaldehyde,6543,DTXSID8022032,O=Cc1cc(ccc1)C(F)(F)F,"InChI=1S/C8H5F3O/c9-8(10,11)7-3-1-2-6(4-7)5-12/h1-5H",NMTUHPSKJJYGML-UHFFFAOYSA-N,?,,"HANSCH,C ET AL. (1995)",2.47
101928,454-92-2,454-92-2,[H]OC(=O)C1=C([H])C([H])=C([H])C(C(F)(F)F)=C1[H],M-TRIFLUOROMETHYLBENZOIC ACID,3-(Trifluoromethyl)benzoic acid,3-(trifluoromethyl)benzoic acid,6544,DTXSID2041460,OC(=O)c1cc(ccc1)C(F)(F)F,"InChI=1S/C8H5F3O2/c9-8(10,11)6-3-1-2-5(4-6)7(12)13/h1-4H,(H,12,13)",FQXQBFUUVCDIRK-UHFFFAOYSA-N,?,,"HANSCH,C ET AL. (1995)",2.95
101930,455-16-3,455-16-3,[H]C1=C([H])C(S(=O)(=O)F)=C([H])C([H])=C1C([H])([H])[H],P-FLUOROSULFONYLTOLUENE,"Benzenesulfonyl fluoride, 4-methyl-",4-Methylbenzenesulfonyl fluoride,6546,DTXSID0060014,Cc1ccc(cc1)S(=O)(=O)F,"InChI=1S/C7H7FO2S/c1-6-2-4-7(5-3-6)11(8,9)10/h2-5H,1H3",IZZYABADQVQHLC-UHFFFAOYSA-N,?,,"HANSCH,C ET AL. (1995)",2.74
101931,455-24-3,455-24-3,[H]OC(=O)C1=C([H])C([H])=C(C(F)(F)F)C([H])=C1[H],P-CF3 BENZOIC ACID,"Benzoic acid, 4-(trifluoromethyl)-",4-(Trifluoromethyl)benzoic acid,6547,DTXSID0060018,OC(=O)c1ccc(cc1)C(F)(F)F,"InChI=1S/C8H5F3O2/c9-8(10,11)6-3-1-5(2-4-6)7(12)13/h1-4H,(H,12,13)",SWKPKONEIZGROQ-UHFFFAOYSA-N,?,,"HANSCH,C ET AL. (1995)",3.1
101932,455-36-7,455-36-7,[H]C1=C([H])C(F)=C([H])C(C(=O)C([H])([H])[H])=C1[H],M-FLUOROACETOPHENONE,"Ethanone, 1-(3-fluorophenyl)-",1-(3-fluorophenyl)ethanone,6548,DTXSID8073186,CC(=O)c1cccc(F)c1,"InChI=1S/C8H7FO/c1-6(10)7-3-2-4-8(9)5-7/h2-5H,1H3",HCEKGPAHZCYRBZ-UHFFFAOYSA-N,?,,"HANSCH,C ET AL. (1995)",1.77