ChemID,source_casrn,CAS,SMILES,NAME,preferred_name,iupac,MPID,dsstox_substance_id,Canonical_QSARr,InChI_Code_QSARr,InChI Key_QSARr,Salt_Solvent,Salt_Solvent_ID,Kow Reference,LogP
102933,824-98-6,824-98-6,[H]C1=C([H])C(OC([H])([H])[H])=C([H])C(C([H])([H])Cl)=C1[H],"BENZYL CHLORIDE,3-METHOXY",m-(Chloromethyl)anisole,1-(Chloromethyl)-3-methoxybenzene,7510,DTXSID80231719,COc1cccc(CCl)c1,"InChI=1S/C8H9ClO/c1-10-8-4-2-3-7(5-8)6-9/h2-5H,6H2,1H3",VGISFWWEOGVMED-UHFFFAOYSA-N,?,,BIOBYTE STARLIST (2009),2.68
102934,825-44-5,825-44-5,[H]C1=C([H])C([H])=C2C(=C1[H])C([H])=C([H])S2(=O)=O,"BENZO(B)THIOPHENE S,S-DIOXIDE","Benzo(b)thiophene 1,1-dioxide","1-benzothiophene 1,1-dioxide",7511,DTXSID00231796,O=S1(=O)C=Cc2ccccc12,InChI=1S/C8H6O2S/c9-11(10)6-5-7-3-1-2-4-8(7)11/h1-6H,FRJNKYGTHPUSJR-UHFFFAOYSA-N,?,,"HANSCH,C ET AL. (1995)",0.88
102935,825-55-8,825-55-8,[H]C1=C([H])C([H])=C(C2=C([H])C([H])=C([H])C([H])=C2[H])S1,2-PHENYLTHIOPHENE,,,7512,DTXSID00876227,c1ccccc1-c1ccc[s]1,InChI=1S/C10H8S/c1-2-5-9(6-3-1)10-7-4-8-11-10/h1-8H,PJRGDKFLFAYRBV-UHFFFAOYSA-N,?,,"HANSCH,C ET AL. (1995)",3.74
102937,825-86-5,825-86-5,[H]C1=C([H])C(S(=O)(=O)N([H])[H])=C([H])C([H])=C1I,4-IODOBENZENESULFONAMIDE,4-Iodobenzenesulfonamide,4-IODOBENZENESULFONAMIDE,7514,DTXSID50231802,NS(=O)(=O)c1ccc(I)cc1,"InChI=1S/C6H6INO2S/c7-5-1-3-6(4-2-5)11(8,9)10/h1-4H,(H2,8,9,10)",KQZFABSTXSNEQH-UHFFFAOYSA-N,?,,"HANSCH,C ET AL. (1995)",1.59
102938,826-81-3,826-81-3,[H]OC1=C2N=C(C([H])([H])[H])C([H])=C([H])C2=C([H])C([H])=C1[H],2-METHYL 8-QUINOLONOL,"8-Quinolinol, 2-methyl-",2-Methylquinolin-8-ol,7515,DTXSID3061184,Cc1ccc2cccc(O)c2[n]1,"InChI=1S/C10H9NO/c1-7-5-6-8-3-2-4-9(12)10(8)11-7/h2-6,12H,1H3",NBYLBWHHTUWMER-UHFFFAOYSA-N,?,,"HANSCH,C ET AL. (1995)",2.33
102939,827-42-9,827-42-9,[H]C1=C([H])C([H])=C(C2=C([H])C(=O)SS2)C([H])=C1[H],"3H-1,2-Dithiol-3-one, 5-phenyl-","3H-1,2-Dithiol-3-one, 5-phenyl-",5-phenyldithiol-3-one,7516,DTXSID3061186,O=C1C=C(SS1)c1ccccc1,InChI=1S/C9H6OS2/c10-9-6-8(11-12-9)7-4-2-1-3-5-7/h1-6H,ZCDDSVYFACNQAM-UHFFFAOYSA-N,?,,"BONA,M ET AL. (1995)",3.01
102941,830-03-5,830-03-5,[H]C1=C([H])C([N+](=O)[O-])=C([H])C([H])=C1OC(=O)C([H])([H])[H],P-NITROPHENYLACETATE,"Acetic acid, 4-nitrophenyl ester",(4-nitrophenyl) acetate,7518,DTXSID2061191,CC(=O)Oc1ccc(cc1)[N+]([O-])=O,"InChI=1S/C8H7NO4/c1-6(10)13-8-4-2-7(3-5-8)9(11)12/h2-5H,1H3",QAUUDNIGJSLPSX-UHFFFAOYSA-N,?,,"HANSCH,C ET AL. (1995)",1.5
102942,830-07-9,830-07-9,[H]C1=C(/C([H])=C(\[H])[N+](=O)[O-])OC([N+](=O)[O-])=C1[H],1-(5-NO2-2-furyl)-2-(nitro)ethylene,,,7519,DTXSID80878865,[O-][N+](=O)C=Cc1ccc(o1)[N+]([O-])=O,InChI=1S/C6H4N2O5/c9-7(10)4-3-5-1-2-6(13-5)8(11)12/h1-4H/b4-3+,NMZDNQIJZAERIO-ONEGZZNKSA-N,?,,"BALAZ,S ET AL. (1987)",1.3
102943,830-09-1,830-09-1,[H]OC(=O)/C([H])=C(\[H])C1=C([H])C([H])=C(OC([H])([H])[H])C([H])=C1[H],"CINNAMIC ACID, P-METHOXY-",4-Methoxycinnamic acid,3-(4-methoxyphenyl)prop-2-enoic acid,7520,DTXSID4048147,COc1ccc(cc1)C=CC(O)=O,"InChI=1S/C10H10O3/c1-13-9-5-2-8(3-6-9)4-7-10(11)12/h2-7H,1H3,(H,11,12)/b7-4+",AFDXODALSZRGIH-QPJJXVBHSA-N,?,,"HANSCH,C ET AL. (1995)",2.68
102945,830-81-9,NOCAS_870785,[H]C1=C([H])C(OC(=O)C([H])([H])[H])=C2C([H])=C([H])C([H])=C([H])C2=C1[H],1-ACETOXYNAPHTHALENE,,,7522,DTXSID00870785,CC(=O)Oc1cccc2ccccc21,"InChI=1S/C12H10O2/c1-9(13)14-12-8-4-6-10-5-2-3-7-11(10)12/h2-8H,1H3",VGKONPUVOVVNSU-UHFFFAOYSA-N,?,,"HANSCH,C ET AL. (1995)",2.78
102946,830-96-6,830-96-6,[H]OC(=O)C([H])([H])C([H])([H])C1=C([H])N([H])C2=C([H])C([H])=C([H])C([H])=C21,1H-INDOLE-3-PROPANOIC ACID,1H-Indole-3-propanoic acid,3-(1H-indol-3-yl)propanoic acid,7523,DTXSID7061192,OC(=O)CCc1c[nH]c2ccccc12,"InChI=1S/C11H11NO2/c13-11(14)6-5-8-7-12-10-4-2-1-3-9(8)10/h1-4,7,12H,5-6H2,(H,13,14)",GOLXRNDWAUTYKT-UHFFFAOYSA-N,?,,"HANSCH,C ET AL. (1995)",1.75
102948,831-61-8,831-61-8,[H]OC1=C([H])C(C(=O)OC([H])([H])C([H])([H])[H])=C([H])C(O[H])=C1O[H],ETHYL GALLATE,"Benzoic acid, 3,4,5-trihydroxy-, ethyl ester","Ethyl 3,4,5-trihydroxybenzoate",7524,DTXSID2061195,CCOC(=O)c1cc(O)c(O)c(O)c1,"InChI=1S/C9H10O5/c1-2-14-9(13)5-3-6(10)8(12)7(11)4-5/h3-4,10-12H,2H2,1H3",VFPFQHQNJCMNBZ-UHFFFAOYSA-N,?,,"HANSCH,C ET AL. (1995)",1.3
102950,831-82-3,831-82-3,[H]OC1=C([H])C([H])=C(OC2=C([H])C([H])=C([H])C([H])=C2[H])C([H])=C1[H],"PHENOL, 4-PHENOXY-",4-Phenoxyphenol,4-phenoxyphenol,7526,DTXSID2022127,Oc1ccc(cc1)Oc1ccccc1,"InChI=1S/C12H10O2/c13-10-6-8-12(9-7-10)14-11-4-2-1-3-5-11/h1-9,13H",ZSBDGXGICLIJGD-UHFFFAOYSA-N,?,,"HANSCH,C ET AL. (1995)",3.35
102951,832-69-9,832-69-9,[H]C1=C([H])C2=C([H])C([H])=C3C(=C2C([H])=C1[H])C([H])=C([H])C([H])=C3C([H])([H])[H],1-METHYLPHENANTHRENE,1-Methyl phenanthrene,1-methylphenanthrene,7527,DTXSID6025648,Cc1cccc2c3ccccc3ccc21,"InChI=1S/C15H12/c1-11-5-4-8-15-13(11)10-9-12-6-2-3-7-14(12)15/h2-10H,1H3",DOWJXOHBNXRUOD-UHFFFAOYSA-N,?,,"WANG,L ET AL. (1986)",5.08
102952,832-71-3,832-71-3,[H]C1=C([H])C([H])=C2C(=C1[H])C([H])=C([H])C1=C([H])C([H])=C(C([H])([H])[H])C([H])=C12,3-METHYLPHENANTHRENE,3-Methylphenanthrene,3-methylphenanthrene,7528,DTXSID7052731,Cc1cc2c3ccccc3ccc2cc1,"InChI=1S/C15H12/c1-11-6-7-13-9-8-12-4-2-3-5-14(12)15(13)10-11/h2-10H,1H3",GKYWZUBZZBHZKU-UHFFFAOYSA-N,?,,"WANG,L ET AL. (1986)",5.15
102954,834-12-8,834-12-8,[H]N(C1=NC(N([H])C([H])(C([H])([H])[H])C([H])([H])[H])=NC(SC([H])([H])[H])=N1)C([H])([H])C([H])([H])[H],AMETRYNE,Ametryn,"N-ethyl-6-(methylsulfanyl)-N'-(propan-2-yl)-1,3,5-triazine-2,4-diamine",7530,DTXSID1023869,CCNc1[n]c(NC(C)C)[n]c([n]1)SC,"InChI=1S/C9H17N5S/c1-5-10-7-12-8(11-6(2)3)14-9(13-7)15-4/h6H,5H2,1-4H3,(H2,10,11,12,13,14)",RQVYBGPQFYCBGX-UHFFFAOYSA-N,?,,"HANSCH,C ET AL. (1995)",2.98
102955,834-91-3,834-91-3,[H]N1C(=O)C(N(C([H])([H])C([H])([H])F)C([H])([H])C([H])([H])Cl)=C(C([H])([H])[H])N([H])C1=O,"2,4(1H,3H)-PYRIMIDINEDIONE, 5-[(2-CHLOROETHYL)(2",Fluorodopan,"5-(2-chloroethyl-(2-fluoroethyl)amino)-6-methyl-1H-pyrimidine-2,4-dione",7531,DTXSID60232320,CC1NC(=O)NC(=O)C=1N(CCF)CCCl,"InChI=1S/C9H13ClFN3O2/c1-6-7(8(15)13-9(16)12-6)14(4-2-10)5-3-11/h2-5H2,1H3,(H2,12,13,15,16)",ODACNRQBNVVGAI-UHFFFAOYSA-N,?,,POMONA (1987),0.85
102956,836-30-6,836-30-6,[H]C1=C([H])C([H])=C(N([H])C2=C([H])C([H])=C([N+](=O)[O-])C([H])=C2[H])C([H])=C1[H],4-NITRO-N-PHENYLBENZENAMINE,4-Nitro-N-phenylaniline,4-nitro-N-phenylaniline,7532,DTXSID8027323,[O-][N+](=O)c1ccc(cc1)Nc1ccccc1,"InChI=1S/C12H10N2O2/c15-14(16)12-8-6-11(7-9-12)13-10-4-2-1-3-5-10/h1-9,13H",XXYMSQQCBUKFHE-UHFFFAOYSA-N,?,,"HANSCH,C ET AL. (1995)",3.74
102958,841-06-5,841-06-5,[H]N(C1=NC(SC([H])([H])[H])=NC(N([H])C([H])(C([H])([H])[H])C([H])([H])[H])=N1)C([H])([H])C([H])([H])C([H])([H])OC([H])([H])[H],METHOPROPTRYNE,Methoprotryne,"N-(3-methoxypropyl)-6-(methylsulfanyl)-N'-(propan-2-yl)-1,3,5-triazine-2,4-diamine",7534,DTXSID2040286,COCCCNc1[n]c([n]c(NC(C)C)[n]1)SC,"InChI=1S/C11H21N5OS/c1-8(2)13-10-14-9(12-6-5-7-17-3)15-11(16-10)18-4/h8H,5-7H2,1-4H3,(H2,12,13,14,15,16)",DDUIUBPJPOKOMV-UHFFFAOYSA-N,?,,BIOBYTE (1995),2.82
102959,842-00-2,842-00-2,[H]C1=C([H])C([H])=C2C(=C1[H])C(S(=O)(=O)N([H])[H])=C([H])C([H])=C2S(=O)(=O)C([H])([H])C([H])([H])[H],ET-4-SULFONAMIDONAPHTHYLSULFONE,4-Ethylsulphonylnaphthalene-1-sulfonamide,4-(ethylsulfonyl)naphthalene-1-sulfonamide,7535,DTXSID9020613,CCS(=O)(=O)c1ccc(c2ccccc21)S(N)(=O)=O,"InChI=1S/C12H13NO4S2/c1-2-18(14,15)11-7-8-12(19(13,16)17)10-6-4-3-5-9(10)11/h3-8H,2H2,1H3,(H2,13,16,17)",BLQOLXMZXQXGOL-UHFFFAOYSA-N,?,,"HANSCH,C ET AL. (1995)",1.24
102960,846-49-1,846-49-1,[H]OC1([H])N=C(C2=C(Cl)C([H])=C([H])C([H])=C2[H])C2=C(C([H])=C([H])C(Cl)=C2[H])N([H])C1=O,LORAZEPAM,Lorazepam,"7-chloro-5-(2-chlorophenyl)-3-hydroxy-1,3-dihydro-2H-1,4-benzodiazepin-2-one",7536,DTXSID7023225,OC1N=C(c2cc(Cl)ccc2NC1=O)c1ccccc1Cl,"InChI=1S/C15H10Cl2N2O2/c16-8-5-6-12-10(7-8)13(19-15(21)14(20)18-12)9-3-1-2-4-11(9)17/h1-7,15,21H,(H,18,20)",DIWRORZWFLOCLC-UHFFFAOYSA-N,?,,"HANSCH,C ET AL. (1995)",2.39
102962,846-53-7,846-53-7,[H]C1=C([H])C(SC([H])([H])[H])=C(C2=NC([H])([H])C(=O)N([H])C3=C2C([H])=C(Cl)C([H])=C3[H])C([H])=C1[H],"1,4-BENZODIAZPN2-ON,5(2-MES PH)7CL",,,7538,DTXSID40877950,CSc1ccccc1C1=NCC(=O)Nc2ccc(Cl)cc21,"InChI=1S/C16H13ClN2OS/c1-21-14-5-3-2-4-11(14)16-12-8-10(17)6-7-13(12)19-15(20)9-18-16/h2-8H,9H2,1H3,(H,19,20)",LQRLCLIJZVZHHD-UHFFFAOYSA-N,?,,"HANSCH,C & LEO,AJ (1985)",2.99
102963,847-25-6,15318-45-3,[H]OC([H])([H])C([H])(N([H])C(=O)C([H])(Cl)Cl)C([H])(O[H])C1=C([H])C([H])=C(S(=O)(=O)C([H])([H])[H])C([H])=C1[H],P-METHYLSULFONYLAMPHENICOL,Thiamphenicol,"2,2-dichloro-N-{(1R,2R)-1,3-dihydroxy-1-[4-(methylsulfonyl)phenyl]propan-2-yl}acetamide",7539,DTXSID5021338,CS(=O)(=O)c1ccc(cc1)C(O)C(CO)NC(=O)C(Cl)Cl,"InChI=1S/C12H15Cl2NO5S/c1-21(19,20)8-4-2-7(3-5-8)10(17)9(6-16)15-12(18)11(13)14/h2-5,9-11,16-17H,6H2,1H3,(H,15,18)",OTVAEFIXJLOWRX-UHFFFAOYSA-N,?,,"HANSCH,C ET AL. (1995)",-0.27
102964,857-62-5,NOCAS_861938,[H]OC([H])(C1=C([H])C([H])=C(F)C([H])=C1[H])C([H])([H])C([H])([H])C([H])([H])N1C([H])([H])C([H])([H])N(C2=C(OC([H])([H])[H])C([H])=C([H])C([H])=C2[H])C([H])([H])C1([H])[H],N-Arylpiperazine derivative,,,7540,DTXSID20861938,COc1ccccc1N1CCN(CCCC(O)c2ccc(F)cc2)CC1,"InChI=1S/C21H27FN2O2/c1-26-21-7-3-2-5-19(21)24-15-13-23(14-16-24)12-4-6-20(25)17-8-10-18(22)11-9-17/h2-3,5,7-11,20,25H,4,6,12-16H2,1H3",LCZRXFYSMJIDQQ-UHFFFAOYSA-N,?,,"KUIPERS,W ET AL. (1997)",3.4
102966,862-26-0,862-26-0,[H]OC(=O)C([H])(N([H])C(=O)C([H])(N([H])C(=O)OC([H])([H])C1=C([H])C([H])=C([H])C([H])=C1[H])C([H])(C([H])([H])[H])C([H])([H])[H])C([H])([H])C1=C([H])C([H])=C(O[H])C([H])=C1[H],"L-TYROSINE, N-(N-CARBOXY-L-VALYL)-, N-BENZYL EST",,,7542,DTXSID70875383,CC(C)C(NC(=O)OCc1ccccc1)C(=O)NC(Cc1ccc(O)cc1)C(O)=O,"InChI=1S/C22H26N2O6/c1-14(2)19(24-22(29)30-13-16-6-4-3-5-7-16)20(26)23-18(21(27)28)12-15-8-10-17(25)11-9-15/h3-11,14,18-19,25H,12-13H2,1-2H3,(H,23,26)(H,24,29)(H,27,28)",YPLGNDYBRBVBCT-UHFFFAOYSA-N,?,,POMONA (1987),2.43
102967,865-21-4,865-21-4,[H]OC1(C(=O)OC([H])([H])[H])C([H])(OC(=O)C([H])([H])[H])C2(C([H])([H])C([H])([H])[H])C([H])=C([H])C([H])([H])N3C([H])([H])C([H])([H])C4(C5=C([H])C(C6(C(=O)OC([H])([H])[H])C7=C(C8=C(C([H])=C([H])C([H])=C8[H])N7[H])C([H])([H])C([H])([H])N7C([H])([H])C([H])(C6([H])[H])C([H])([H])C(O[H])(C([H])([H])C([H])([H])[H])C7([H])[H])=C(OC([H])([H])[H])C([H])=C5N(C([H])([H])[H])C14[H])C32[H],Vinblastine,Vinblastine,vincaleukoblastine,7543,DTXSID8021430,CN1C2C3(CCN4CC=CC(CC)(C34)C(OC(C)=O)C2(O)C(=O)OC)c2cc(c(cc12)OC)C1(CC2CC(O)(CN(C2)CCc2c1[nH]c1ccccc21)CC)C(=O)OC,"InChI=1S/C46H58N4O9/c1-8-42(54)23-28-24-45(40(52)57-6,36-30(15-19-49(25-28)26-42)29-13-10-11-14-33(29)47-36)32-21-31-34(22-35(32)56-5)48(4)38-44(31)17-20-50-18-12-16-43(9-2,37(44)50)39(59-27(3)51)46(38,55)41(53)58-7/h10-14,16,21-22,28,37-39,47,54-55H,8-9,15,17-20,23-26H2,1-7H3",JXLYSJRDGCGARV-UHFFFAOYSA-N,?,,SANGSTER (1994),3.7
102968,865-24-7,NOCAS_862447,[H]OC1(C(=O)OC([H])([H])[H])C([H])(OC(=O)C([H])([H])N(C([H])([H])[H])C([H])([H])[H])C2(C([H])([H])C([H])([H])[H])C([H])=C([H])C([H])([H])N3C([H])([H])C([H])([H])C4(C5=C([H])C(C6(C(=O)OC([H])([H])[H])C7=C(C8=C(C([H])=C([H])C([H])=C8[H])N7[H])C([H])([H])C([H])([H])N7C([H])([H])C([H])(C6([H])[H])C([H])([H])C(O[H])(C([H])([H])C([H])([H])[H])C7([H])[H])=C(OC([H])([H])[H])C([H])=C5N(C([H])([H])[H])C14[H])C32[H],"Vincaleukoblastine,O4-deactyl,4-ester gl",,,7544,DTXSID40862447,CN(C)CC(=O)OC1C2(CC)C=CCN3CCC4(C23)C(N(C)c2cc(OC)c(cc42)C2(CC3CN(CCc4c5ccccc5[nH]c24)CC(O)(C3)CC)C(=O)OC)C1(O)C(=O)OC,"InChI=1S/C48H63N5O9/c1-9-44(57)24-29-25-47(42(55)60-7,38-31(16-20-52(26-29)28-44)30-14-11-12-15-34(30)49-38)33-22-32-35(23-36(33)59-6)51(5)40-46(32)18-21-53-19-13-17-45(10-2,39(46)53)41(48(40,58)43(56)61-8)62-37(54)27-50(3)4/h11-15,17,22-23,29,39-41,49,57-58H,9-10,16,18-21,24-28H2,1-8H3",YNSIUGHLISOIRQ-UHFFFAOYSA-N,?,,SANGSTER (1994),4.02
102971,868-77-9,868-77-9,[H]OC([H])([H])C([H])([H])OC(=O)C(=C([H])[H])C([H])([H])[H],2-HYDROXYETHYL METHACRYLATE,2-Hydroxyethyl methacrylate,2-hydroxyethyl 2-methylprop-2-enoate,7546,DTXSID7022128,CC(=C)C(=O)OCCO,"InChI=1S/C6H10O3/c1-5(2)6(8)9-4-3-7/h7H,1,3-4H2,2H3",WOBHKFSMXKNTIM-UHFFFAOYSA-N,?,,"HANSCH,C ET AL. (1995)",0.47
102972,869-01-2,869-01-2,[H]N([H])C(=O)N(N=O)C([H])([H])C([H])([H])C([H])([H])C([H])([H])[H],1-BUTYL-1-NITROSOUREA,N-Butyl-N-nitrosourea,1-butyl-1-nitrosourea,7547,DTXSID2020214,CCCCN(N=O)C(N)=O,"InChI=1S/C5H11N3O2/c1-2-3-4-8(7-10)5(6)9/h2-4H2,1H3,(H2,6,9)",LSWOCDLIYSKTRX-UHFFFAOYSA-N,?,,"HANSCH,C ET AL. (1995)",1.04
102973,869-29-4,869-29-4,[H]C([H])=C([H])C([H])(OC(=O)C([H])([H])[H])OC(=O)C([H])([H])[H],ALLYLIDENEDIACETATE,"2-Propene-1,1-diol diacetate","prop-1-ene-3,3-diyl diacetate",7548,DTXSID8041450,CC(=O)OC(C=C)OC(C)=O,"InChI=1S/C7H10O4/c1-4-7(10-5(2)8)11-6(3)9/h4,7H,1H2,2-3H3",TXECTBGVEUDNSL-UHFFFAOYSA-N,?,,CHEMICALS INSPECTION AND TESTING INSTITU (1992),0.78
102975,872-31-1,872-31-1,[H]C1=C([H])C(Br)=C([H])S1,3-BROMOTHIOPHENE,3-Bromothiophene,3-bromothiophene,7550,DTXSID2022129,Brc1c[s]cc1,InChI=1S/C4H3BrS/c5-4-1-2-6-3-4/h1-3H,XCMISAPCWHTVNG-UHFFFAOYSA-N,?,,"HANSCH,C ET AL. (1995)",2.62
102976,872-50-4,872-50-4,[H]C([H])([H])N1C(=O)C([H])([H])C([H])([H])C1([H])[H],N-METHYLPYRROLIDONE,N-Methyl-2-pyrrolidone,1-methylpyrrolidin-2-one,7551,DTXSID6020856,CN1CCCC1=O,"InChI=1S/C5H9NO/c1-6-4-2-3-5(6)7/h2-4H2,1H3",SECXISVLQFMRJM-UHFFFAOYSA-N,?,,"SASAKI,H ET AL. (1988)",-0.38
102977,872-55-9,NOCAS_862452,[H]C1=C([H])C([H])=C(C([H])([H])C([H])([H])[H])S1,2-ETHYLTHIOPHENE,,,7552,DTXSID90862452,CCc1ccc[s]1,"InChI=1S/C6H8S/c1-2-6-4-3-5-7-6/h3-5H,2H2,1H3",JCCCMAAJYSNBPR-UHFFFAOYSA-N,?,,"HANSCH,C ET AL. (1995)",2.87
102979,873-49-4,873-49-4,[H]C1=C([H])C([H])=C(C2([H])C([H])([H])C2([H])[H])C([H])=C1[H],CYCLOPROPYLBENZENE,Cyclopropylbenzene,Cyclopropylbenzene,7554,DTXSID2074297,C1CC1c1ccccc1,"InChI=1S/C9H10/c1-2-4-8(5-3-1)9-6-7-9/h1-5,9H,6-7H2",VFSFCYAQBIPUSL-UHFFFAOYSA-N,?,,"HANSCH,C ET AL. (1995)",3.27
102980,873-55-2,873-55-2,[H]OS(=O)C1=C([H])C([H])=C([H])C([H])=C1[H],"BENZENESULFINIC ACID, SODIUM SALT","Benzenesulfinic acid, sodium salt",sodium sulfinatobenzene,7555,DTXSID6061238,OS(=O)c1ccccc1,"InChI=1S/C6H6O2S/c7-9(8)6-4-2-1-3-5-6/h1-5H,(H,7,8)",JEHKKBHWRAXMCH-UHFFFAOYSA-N,[Na+],7,POMONA (1987),-3.54
102981,873-62-1,873-62-1,[H]OC1=C([H])C([H])=C([H])C(C#N)=C1[H],M-CYANOPHENOL,m-Hydroxybenzonitrile,3-Hydroxybenzonitrile,7556,DTXSID10236272,N#Cc1cccc(O)c1,"InChI=1S/C7H5NO/c8-5-6-2-1-3-7(9)4-6/h1-4,9H",SGHBRHKBCLLVCI-UHFFFAOYSA-N,?,,"HANSCH,C ET AL. (1995)",1.7
102983,873-76-7,873-76-7,[H]OC([H])([H])C1=C([H])C([H])=C(Cl)C([H])=C1[H],P-CHLOROBENZYL ALCOHOL,4-Chlorobenzenemethanol,,7558,DTXSID7073937,OCc1ccc(Cl)cc1,"InChI=1S/C7H7ClO/c8-7-3-1-6(5-9)2-4-7/h1-4,9H,5H2",PTHGDVCPCZKZKR-UHFFFAOYSA-N,?,,"HANSCH,C ET AL. (1995)",1.96
102984,874-14-6,874-14-6,[H]C1=C([H])N(C([H])([H])[H])C(=O)N(C([H])([H])[H])C1=O,"2,4(1H,3H)-PYRIMIDINEDIONE, 1,3-DIMETHYL-","2,4(1H,3H)-Pyrimidinedione, 1,3-dimethyl-","1,3-dimethylpyrimidine-2,4-dione",7559,DTXSID0061244,CN1C=CC(=O)N(C)C1=O,"InChI=1S/C6H8N2O2/c1-7-4-3-5(9)8(2)6(7)10/h3-4H,1-2H3",JSDBKAHWADVXFU-UHFFFAOYSA-N,?,,"HANSCH,C ET AL. (1995)",-0.54
102985,874-41-9,874-41-9,[H]C1=C(C([H])([H])[H])C([H])=C(C([H])([H])[H])C(C([H])([H])C([H])([H])[H])=C1[H],"1,3-DIMETHYL-4-ETHYLBENZENE","1,3-Dimethyl-4-ethylbenzene","1-Ethyl-2,4-dimethylbenzene",7560,DTXSID0061246,CCc1ccc(C)cc1C,"InChI=1S/C10H14/c1-4-10-6-5-8(2)7-9(10)3/h5-7H,4H2,1-3H3",MEMBJMDZWKVOTB-UHFFFAOYSA-N,?,,"SHERBLOM,PM & EGANHOUSE,RP (1988)",4.47
102987,874-84-0,874-84-0,[H]C1=C([H])C([H])=C(/C([H])=C(\[H])[N+](=O)[O-])S1,2-(B-NITROVINYL)THIOPHENE,,,7562,DTXSID50878872,[O-][N+](=O)C=Cc1ccc[s]1,InChI=1S/C6H5NO2S/c8-7(9)4-3-6-2-1-5-10-6/h1-5H/b4-3+,UTPOWFFIBWOQRK-ONEGZZNKSA-N,?,,"HANSCH,C ET AL. (1995)",1.96
102988,874-90-8,874-90-8,[H]C1=C([H])C(OC([H])([H])[H])=C([H])C([H])=C1C#N,"BENZONITRILE, 4-METHOXY-",4-Anisonitrile,4-methoxybenzonitrile,7563,DTXSID0052596,COc1ccc(cc1)C#N,"InChI=1S/C8H7NO/c1-10-8-4-2-7(6-9)3-5-8/h2-5H,1H3",XDJAAZYHCCRJOK-UHFFFAOYSA-N,?,,"WANG,W ET AL. (1987)",1.7
102989,875-79-6,875-79-6,[H]C1=C([H])C([H])=C2C(=C1[H])C([H])=C(C([H])([H])[H])N2C([H])([H])[H],"1,2-DIMETHYLINDOLE","1,2-Dimethylindole","1,2-DIMETHYLINDOLE",7564,DTXSID00236367,Cc1cc2ccccc2[n]1C,"InChI=1S/C10H11N/c1-8-7-9-5-3-4-6-10(9)11(8)2/h3-7H,1-2H3",BJMUOUXGBFNLSN-UHFFFAOYSA-N,?,,"HANSCH,C ET AL. (1995)",2.82
102991,877-11-2,877-11-2,[H]C([H])([H])C1=C(Cl)C(Cl)=C(Cl)C(Cl)=C1Cl,"2,3,4,5,6-PENTACHLOROTOLUENE",,,7566,DTXSID10870791,Cc1c(Cl)c(Cl)c(Cl)c(Cl)c1Cl,InChI=1S/C7H3Cl5/c1-2-3(8)5(10)7(12)6(11)4(2)9/h1H3,AVSIMRGRHWKCAY-UHFFFAOYSA-N,?,,BIOBYTE (1995),5.62
102992,877-22-5,877-22-5,[H]OC(=O)C1=C(O[H])C(OC([H])([H])[H])=C([H])C([H])=C1[H],3-METHOXYSALICYCLIC ACID,2-Hydroxy-3-methoxybenzoic acid,2-Hydroxy-3-methoxybenzoic acid,7567,DTXSID20236566,COc1cccc(C(O)=O)c1O,"InChI=1S/C8H8O4/c1-12-6-4-2-3-5(7(6)9)8(10)11/h2-4,9H,1H3,(H,10,11)",AUZQQIPZESHNMG-UHFFFAOYSA-N,?,,"HANSCH,C ET AL. (1995)",1.94
102993,877-95-2,877-95-2,[H]C1=C([H])C([H])=C(C([H])([H])C([H])([H])N([H])C(=O)C([H])([H])[H])C([H])=C1[H],"ACETAMIDE, N-(2-PHENYLETHYL)-",N-Acetyl-2-phenylethylamine,N-(2-Phenylethyl)acetamide,7568,DTXSID50236574,CC(=O)NCCc1ccccc1,"InChI=1S/C10H13NO/c1-9(12)11-8-7-10-5-3-2-4-6-10/h2-6H,7-8H2,1H3,(H,11,12)",MODKMHXGCGKTLE-UHFFFAOYSA-N,?,,"RADZICKA,A & WOLFENDEN,R (1988)",1.19
102995,881-07-2,881-07-2,[H]C1=C([H])C2=C([H])C([H])=C(C([H])([H])[H])N=C2C([N+](=O)[O-])=C1[H],"QUINOLINE, 2-METHYL-8-NITRO-","Quinaldine, 8-nitro-",2-Methyl-8-nitroquinoline,7570,DTXSID30236815,Cc1ccc2cccc(c2[n]1)[N+]([O-])=O,"InChI=1S/C10H8N2O2/c1-7-5-6-8-3-2-4-9(12(13)14)10(8)11-7/h2-6H,1H3",UHPGVDHXHDPYQP-UHFFFAOYSA-N,?,,"DEBNATH,AK ET AL. (1992)",1.99
102996,881-51-6,881-51-6,[H]C1=C(Cl)C([H])=C([N+](=O)[O-])C(N([H])C(=O)C([H])([H])[H])=C1[H],2-NITRO-4-CHLOROACETANILIDE,N-(4-chloro-2-nitrophenyl)acetamide,C8H7ClN2O3,7571,DTXSID40383081,CC(=O)Nc1ccc(Cl)cc1[N+]([O-])=O,"InChI=1S/C8H7ClN2O3/c1-5(12)10-7-3-2-6(9)4-8(7)11(13)14/h2-4H,1H3,(H,10,12)",QWDUNBOWGVRUCG-UHFFFAOYSA-N,?,,"NAKAGAWA,Y ET AL. (1992)",1.78
102997,882-06-4,619-89-6,[H]OC(=O)/C([H])=C(\[H])C1=C([H])C([H])=C([N+](=O)[O-])C([H])=C1[H],TRANS-P-NITROCINNAMIC ACID,"2-Propenoic acid, 3-(4-nitrophenyl)-",?,7572,DTXSID1060710,[O-][N+](=O)c1ccc(cc1)C=CC(O)=O,"InChI=1S/C9H7NO4/c11-9(12)6-3-7-1-4-8(5-2-7)10(13)14/h1-6H,(H,11,12)/b6-3+",XMMRNCHTDONGRJ-ZZXKWVIFSA-N,?,,"HANSCH,C ET AL. (1995)",2.12
102999,882-14-4,882-14-4,[H]C1=C([H])C(N([H])C(=O)C([H])(C([H])([H])[H])C([H])([H])[H])=C([H])C(Cl)=C1Cl,"PROPANAMIDE, N-(3,4-DICHLOROPHENYL)-","N-(3,4-dichlorophenyl)-2-methylpropanamide",C10H11Cl2NO,7574,DTXSID00283619,CC(C)C(=O)Nc1cc(Cl)c(Cl)cc1,"InChI=1S/C10H11Cl2NO/c1-6(2)10(14)13-7-3-4-8(11)9(12)5-7/h3-6H,1-2H3,(H,13,14)",VVFDYYARGWIPOT-UHFFFAOYSA-N,?,,POMONA (1987),3.72
103000,882-26-8,882-26-8,[H]C1=C([H])C(/C([H])=C(\[H])[N+](=O)[O-])=C([H])C([N+](=O)[O-])=C1[H],3-NITRO-B-NITROSTYRENE,,,7575,DTXSID60879315,[O-][N+](=O)C=Cc1cc(ccc1)[N+]([O-])=O,InChI=1S/C8H6N2O4/c11-9(12)5-4-7-2-1-3-8(6-7)10(13)14/h1-6H/b5-4+,YOEGXQQUPVDQEE-SNAWJCMRSA-N,?,,"HANSCH,C ET AL. (1995)",1.82
103001,882-33-7,882-33-7,[H]C1=C([H])C([H])=C(SSC2=C([H])C([H])=C([H])C([H])=C2[H])C([H])=C1[H],DIPHENYL DISULFIDE,Diphenyl disulfide,diphenyl disulfide,7576,DTXSID6022131,c1ccccc1SSc1ccccc1,InChI=1S/C12H10S2/c1-3-7-11(8-4-1)13-14-12-9-5-2-6-10-12/h1-10H,GUUVPOWQJOLRAS-UHFFFAOYSA-N,?,,"HANSCH,C ET AL. (1995)",4.41
103003,883-93-2,883-93-2,[H]C1=C([H])C([H])=C(C2=NC3=C([H])C([H])=C([H])C([H])=C3S2)C([H])=C1[H],2-PHENYLBENZTHIAZOLE,2-Phenylbenzothiazole,"2-phenyl-1,3-benzothiazole",7578,DTXSID80236946,c1ccccc1-c1[n]c2ccccc2[s]1,InChI=1S/C13H9NS/c1-2-6-10(7-3-1)13-14-11-8-4-5-9-12(11)15-13/h1-9H,XBHOUXSGHYZCNH-UHFFFAOYSA-N,?,,"HANSCH,C ET AL. (1995)",4.26
103004,885-82-5,885-82-5,[H]OC1=C([H])C([H])=C(C2=C([H])C([H])=C([H])C([H])=C2[H])C([H])=C1[N+](=O)[O-],4-PHENYL-2-NITROPHENOL,"3-Nitro(1,1'-biphenyl)-4-ol",2-Nitro-4-phenylphenol,7579,DTXSID30237084,[O-][N+](=O)c1cc(ccc1O)-c1ccccc1,"InChI=1S/C12H9NO3/c14-12-7-6-10(8-11(12)13(15)16)9-4-2-1-3-5-9/h1-8,14H",JDDNJJBXFOLPKX-UHFFFAOYSA-N,?,,"SCHWARZENBACH,RP ET AL. (1988)",3.71