ChemID,source_casrn,CAS,SMILES,NAME,preferred_name,iupac,MPID,dsstox_substance_id,Canonical_QSARr,InChI_Code_QSARr,InChI Key_QSARr,Salt_Solvent,Salt_Solvent_ID,Kow Reference,LogP
101224,111-68-2,111-68-2,[H]N([H])C([H])([H])C([H])([H])C([H])([H])C([H])([H])C([H])([H])C([H])([H])C([H])([H])[H],HEPTYLAMINE,Heptylamine,C7H17N,5867,DTXSID7020681,CCCCCCCN,"InChI=1S/C7H17N/c1-2-3-4-5-6-7-8/h2-8H2,1H3",WJYIASZWHGOTOU-UHFFFAOYSA-N,?,,"HANSCH,C ET AL. (1995)",2.57
101226,111-70-6,111-70-6,[H]OC([H])([H])C([H])([H])C([H])([H])C([H])([H])C([H])([H])C([H])([H])C([H])([H])[H],1-HEPTANOL,1-Heptanol,heptan-1-ol,5869,DTXSID8021937,CCCCCCCO,"InChI=1S/C7H16O/c1-2-3-4-5-6-7-8/h8H,2-7H2,1H3",BBMCTIGTTCKYKF-UHFFFAOYSA-N,?,,SANGSTER (1994),2.62
101227,111-74-0,111-74-0,[H]N(C([H])([H])C([H])([H])[H])C([H])([H])C([H])([H])N([H])C([H])([H])C([H])([H])[H],"1,2-ETHANEDIAMINE, N,N'-DIETHYL-","1,2-Ethanediamine, N,N'-diethyl-","N,N'-diethylethane-1,2-diamine",5870,DTXSID0059409,CCNCCNCC,"InChI=1S/C6H16N2/c1-3-7-5-6-8-4-2/h7-8H,3-6H2,1-2H3",CJKRXEBLWJVYJD-UHFFFAOYSA-N,?,,"HANSCH,C ET AL. (1995)",0.21
101228,111-76-2,111-76-2,[H]OC([H])([H])C([H])([H])OC([H])([H])C([H])([H])C([H])([H])C([H])([H])[H],2-BUTOXYETHANOL,2-Butoxyethanol,C6H14O2,5871,DTXSID1024097,CCCCOCCO,"InChI=1S/C6H14O2/c1-2-3-5-8-6-4-7/h7H,2-6H2,1H3",POAOYUHQDCAZBD-UHFFFAOYSA-N,?,,"HANSCH,C ET AL. (1995)",0.83
101230,111-82-0,111-82-0,[H]C([H])([H])OC(=O)C([H])([H])C([H])([H])C([H])([H])C([H])([H])C([H])([H])C([H])([H])C([H])([H])C([H])([H])C([H])([H])C([H])([H])C([H])([H])[H],METHYL LAURATE,Methyl dodecanoate,methyl dodecanoate,5873,DTXSID5026889,CCCCCCCCCCCC(=O)OC,"InChI=1S/C13H26O2/c1-3-4-5-6-7-8-9-10-11-12-13(14)15-2/h3-12H2,1-2H3",UQDUPQYQJKYHQI-UHFFFAOYSA-N,?,,"KROP,HB ET AL. (1997)",5.41
101231,111-83-1,111-83-1,[H]C([H])([H])C([H])([H])C([H])([H])C([H])([H])C([H])([H])C([H])([H])C([H])([H])C([H])([H])Br,1-BROMOOCTANE,1-Bromooctane,1-bromooctane,5874,DTXSID3021938,CCCCCCCCBr,"InChI=1S/C8H17Br/c1-2-3-4-5-6-7-8-9/h2-8H2,1H3",VMKOFRJSULQZRM-UHFFFAOYSA-N,?,,"HANSCH,C ET AL. (1995)",4.89
101232,111-84-2,111-84-2,[H]C([H])([H])C([H])([H])C([H])([H])C([H])([H])C([H])([H])C([H])([H])C([H])([H])C([H])([H])C([H])([H])[H],N-NONANE,Nonane,nonane,5875,DTXSID9025796,CCCCCCCCC,"InChI=1S/C9H20/c1-3-5-7-9-8-6-4-2/h3-9H2,1-2H3",BKIMMITUMNQMOS-UHFFFAOYSA-N,?,,DAYLIGHT (2003),5.65
101234,111-87-5,111-87-5,[H]OC([H])([H])C([H])([H])C([H])([H])C([H])([H])C([H])([H])C([H])([H])C([H])([H])C([H])([H])[H],1-OCTANOL,1-Octanol,octan-1-ol,5877,DTXSID7021940,CCCCCCCCO,"InChI=1S/C8H18O/c1-2-3-4-5-6-7-8-9/h9H,2-8H2,1H3",KBPLFHHGFOOTCA-UHFFFAOYSA-N,?,,"HANSCH,C ET AL. (1995)",3.0
101235,111-90-0,111-90-0,[H]OC([H])([H])C([H])([H])OC([H])([H])C([H])([H])OC([H])([H])C([H])([H])[H],DIETHYLENE GLYCOL MONOETHYL ETHER,2-(2-Ethoxyethoxy)ethanol,2-(2-ethoxyethoxy)ethanol,5878,DTXSID2021941,CCOCCOCCO,"InChI=1S/C6H14O3/c1-2-8-5-6-9-4-3-7/h7H,2-6H2,1H3",XXJWXESWEXIICW-UHFFFAOYSA-N,?,,"FUNASAKI,N ET AL. (1984)",-0.54
101236,111-92-2,111-92-2,[H]N(C([H])([H])C([H])([H])C([H])([H])C([H])([H])[H])C([H])([H])C([H])([H])C([H])([H])C([H])([H])[H],DIBUTYLAMINE,N-Butyl-1-butanamine,N-butylbutan-1-amine,5879,DTXSID7024952,CCCCNCCCC,"InChI=1S/C8H19N/c1-3-5-7-9-8-6-4-2/h9H,3-8H2,1-2H3",JQVDAXLFBXTEQA-UHFFFAOYSA-N,?,,"HANSCH,C ET AL. (1995)",2.83
101238,111-96-6,111-96-6,[H]C([H])([H])OC([H])([H])C([H])([H])OC([H])([H])C([H])([H])OC([H])([H])[H],2-METHOXYETHYLETHER,Bis(2-methoxyethyl) ether,1-methoxy-2-(2-methoxyethoxy)ethane,5881,DTXSID1024621,COCCOCCOC,"InChI=1S/C6H14O3/c1-7-3-5-9-6-4-8-2/h3-6H2,1-2H3",SBZXBUIDTXKZTM-UHFFFAOYSA-N,?,,"FUNASAKI,N ET AL. (1984)",-0.36
101240,112-05-0,112-05-0,[H]OC(=O)C([H])([H])C([H])([H])C([H])([H])C([H])([H])C([H])([H])C([H])([H])C([H])([H])C([H])([H])[H],NONANOIC ACID,Nonanoic acid,nonanoic acid,5882,DTXSID3021641,CCCCCCCCC(O)=O,"InChI=1S/C9H18O2/c1-2-3-4-5-6-7-8-9(10)11/h2-8H2,1H3,(H,10,11)",FBUKVWPVBMHYJY-UHFFFAOYSA-N,?,,SANGSTER (1993),3.42
101241,112-12-9,112-12-9,[H]C([H])([H])C(=O)C([H])([H])C([H])([H])C([H])([H])C([H])([H])C([H])([H])C([H])([H])C([H])([H])C([H])([H])C([H])([H])[H],UNDECANONE,2-Undecanone,undecan-2-one,5883,DTXSID2021943,CCCCCCCCCC(C)=O,"InChI=1S/C11H22O/c1-3-4-5-6-7-8-9-10-11(2)12/h3-10H2,1-2H3",KYWIYKKSMDLRDC-UHFFFAOYSA-N,?,,"TANII,H & HASHIMOTO,K (1986)",4.09
101243,112-27-6,112-27-6,[H]OC([H])([H])C([H])([H])OC([H])([H])C([H])([H])OC([H])([H])C([H])([H])O[H],TRIETHYLENE GLYCOL,Triethylene glycol,"2,2'-[ethane-1,2-diylbis(oxy)]diethanol",5885,DTXSID4021393,OCCOCCOCCO,"InChI=1S/C6H14O4/c7-1-3-9-5-6-10-4-2-8/h7-8H,1-6H2",ZIBGPFATKBEMQZ-UHFFFAOYSA-N,?,,"MEYLAN,WM & HOWARD,PH (1995)",-1.75
101244,112-30-1,112-30-1,[H]OC([H])([H])C([H])([H])C([H])([H])C([H])([H])C([H])([H])C([H])([H])C([H])([H])C([H])([H])C([H])([H])C([H])([H])[H],1-DECANOL,1-Decanol,decan-1-ol,5886,DTXSID7021946,CCCCCCCCCCO,"InChI=1S/C10H22O/c1-2-3-4-5-6-7-8-9-10-11/h11H,2-10H2,1H3",MWKFXSUHUHTGQN-UHFFFAOYSA-N,?,,"HANSCH,C ET AL. (1995)",4.57
101245,112-34-5,112-34-5,[H]OC([H])([H])C([H])([H])OC([H])([H])C([H])([H])OC([H])([H])C([H])([H])C([H])([H])C([H])([H])[H],DIETHYLENE GLYCOL MONO-N-BUTYL ETHER,2-(2-Butoxyethoxy)ethanol,2-(2-butoxyethoxy)ethanol,5887,DTXSID8021519,CCCCOCCOCCO,"InChI=1S/C8H18O3/c1-2-3-5-10-7-8-11-6-4-9/h9H,2-8H2,1H3",OAYXUHPQHDHDDZ-UHFFFAOYSA-N,?,,"HANSCH,C ET AL. (1995)",0.56
101247,112-37-8,112-37-8,[H]OC(=O)C([H])([H])C([H])([H])C([H])([H])C([H])([H])C([H])([H])C([H])([H])C([H])([H])C([H])([H])C([H])([H])C([H])([H])[H],UNDECANOIC ACID,Undecanoic acid,undecanoic acid,5889,DTXSID8021690,CCCCCCCCCCC(O)=O,"InChI=1S/C11H22O2/c1-2-3-4-5-6-7-8-9-10-11(12)13/h2-10H2,1H3,(H,12,13)",ZDPHROOEEOARMN-UHFFFAOYSA-N,?,,SANGSTER (1993),4.42
101248,112-38-9,112-38-9,[H]OC(=O)C([H])([H])C([H])([H])C([H])([H])C([H])([H])C([H])([H])C([H])([H])C([H])([H])C([H])([H])C([H])=C([H])[H],UNDECYLENIC ACID,10-Undecenoic acid,undec-10-enoic acid,5890,DTXSID8035001,C=CCCCCCCCCC(O)=O,"InChI=1S/C11H20O2/c1-2-3-4-5-6-7-8-9-10-11(12)13/h2H,1,3-10H2,(H,12,13)",FRPZMMHWLSIFAZ-UHFFFAOYSA-N,?,,"HANSCH,C ET AL. (1995)",3.86
101249,112-39-0,112-39-0,[H]C([H])([H])OC(=O)C([H])([H])C([H])([H])C([H])([H])C([H])([H])C([H])([H])C([H])([H])C([H])([H])C([H])([H])C([H])([H])C([H])([H])C([H])([H])C([H])([H])C([H])([H])C([H])([H])C([H])([H])[H],METHYL HEXADECANOATE,Methyl hexadecanoate,methyl hexadecanoate,5891,DTXSID4029149,CCCCCCCCCCCCCCCC(=O)OC,"InChI=1S/C17H34O2/c1-3-4-5-6-7-8-9-10-11-12-13-14-15-16-17(18)19-2/h3-16H2,1-2H3",FLIACVVOZYBSBS-UHFFFAOYSA-N,?,,"KROP,HB ET AL. (1997)",7.38
101251,112-48-1,112-48-1,[H]C([H])([H])C([H])([H])C([H])([H])C([H])([H])OC([H])([H])C([H])([H])OC([H])([H])C([H])([H])C([H])([H])C([H])([H])[H],"1,2-DIBUTOXYETHANE",Ethylene glycol dibutyl ether,1-(2-butoxyethoxy)butane,5893,DTXSID5074268,CCCCOCCOCCCC,"InChI=1S/C10H22O2/c1-3-5-7-11-9-10-12-8-6-4-2/h3-10H2,1-2H3",GDXHBFHOEYVPED-UHFFFAOYSA-N,?,,"FUNASAKI,N ET AL. (1984)",2.48
101252,112-53-8,112-53-8,[H]OC([H])([H])C([H])([H])C([H])([H])C([H])([H])C([H])([H])C([H])([H])C([H])([H])C([H])([H])C([H])([H])C([H])([H])C([H])([H])C([H])([H])[H],DODECANOL,1-Dodecanol,dodecan-1-ol,5894,DTXSID5026918,CCCCCCCCCCCCO,"InChI=1S/C12H26O/c1-2-3-4-5-6-7-8-9-10-11-12-13/h13H,2-12H2,1H3",LQZZUXJYWNFBMV-UHFFFAOYSA-N,?,,"HANSCH,C ET AL. (1995)",5.13
101253,112-56-1,112-56-1,[H]C([H])([H])C([H])([H])C([H])([H])C([H])([H])OC([H])([H])C([H])([H])OC([H])([H])C([H])([H])SC#N,2(2-BUTOXYETHOXY)ETHYLTHIOCYANATE,2-(2-Butoxyethoxy)ethyl thiocyanate,2-(2-butoxyethoxy)ethyl thiocyanate,5895,DTXSID6024674,CCCCOCCOCCSC#N,"InChI=1S/C9H17NO2S/c1-2-3-4-11-5-6-12-7-8-13-9-10/h2-8H2,1H3",JVGPVVUTUMQJKL-UHFFFAOYSA-N,?,,"HANSCH,C ET AL. (1995)",1.68
101255,112-61-8,112-61-8,[H]C([H])([H])OC(=O)C([H])([H])C([H])([H])C([H])([H])C([H])([H])C([H])([H])C([H])([H])C([H])([H])C([H])([H])C([H])([H])C([H])([H])C([H])([H])C([H])([H])C([H])([H])C([H])([H])C([H])([H])C([H])([H])C([H])([H])[H],METHYL STEARATE,Methyl stearate,methyl octadecanoate,5897,DTXSID2047640,CCCCCCCCCCCCCCCCCC(=O)OC,"InChI=1S/C19H38O2/c1-3-4-5-6-7-8-9-10-11-12-13-14-15-16-17-18-19(20)21-2/h3-18H2,1-2H3",HPEUJPJOZXNMSJ-UHFFFAOYSA-N,?,,"KROP,HB ET AL. (1997)",8.35
101256,112-62-9,112-62-9,[H]/C(=C(/[H])C([H])([H])C([H])([H])C([H])([H])C([H])([H])C([H])([H])C([H])([H])C([H])([H])C([H])([H])[H])C([H])([H])C([H])([H])C([H])([H])C([H])([H])C([H])([H])C([H])([H])C([H])([H])C(=O)OC([H])([H])[H],METHYL OLEATE,Methyl (9Z)-octadec-9-enoate,methyl (9Z)-octadec-9-enoate,5898,DTXSID5025811,CCCCCCCCC=CCCCCCCCC(=O)OC,"InChI=1S/C19H36O2/c1-3-4-5-6-7-8-9-10-11-12-13-14-15-16-17-18-19(20)21-2/h10-11H,3-9,12-18H2,1-2H3/b11-10+",QYDYPVFESGNLHU-ZHACJKMWSA-N,?,,"KROP,HB ET AL. (1997)",7.45
101257,112-63-0,112-63-0,[H]/C(=C(/[H])C([H])([H])C([H])([H])C([H])([H])C([H])([H])C([H])([H])[H])C([H])([H])/C([H])=C(\[H])C([H])([H])C([H])([H])C([H])([H])C([H])([H])C([H])([H])C([H])([H])C([H])([H])C(=O)OC([H])([H])[H],METHYL LINOLEATE,Methyl linoleate,"methyl (9Z,12Z)-octadeca-9,12-dienoate",5899,DTXSID7020843,CCCCCC=CCC=CCCCCCCCC(=O)OC,"InChI=1S/C19H34O2/c1-3-4-5-6-7-8-9-10-11-12-13-14-15-16-17-18-19(20)21-2/h7-8,10-11H,3-6,9,12-18H2,1-2H3/b8-7+,11-10+",WTTJVINHCBCLGX-ZDVGBALWSA-N,?,,"KROP,HB ET AL. (1997)",6.82
101259,112-73-2,112-73-2,[H]C([H])([H])C([H])([H])C([H])([H])C([H])([H])OC([H])([H])C([H])([H])OC([H])([H])C([H])([H])OC([H])([H])C([H])([H])C([H])([H])C([H])([H])[H],DIETHYLENE GLYCOL DIBUTYL ETHER,Diethylene glycol dibutyl ether,1-[2-(2-butoxyethoxy)ethoxy]butane,5901,DTXSID8025046,CCCCOCCOCCOCCCC,"InChI=1S/C12H26O3/c1-3-5-7-13-9-11-15-12-10-14-8-6-4-2/h3-12H2,1-2H3",KZVBBTZJMSWGTK-UHFFFAOYSA-N,?,,"FUNASAKI,N ET AL. (1984)",1.92
101260,113-45-1,113-45-1,[H]C1=C([H])C([H])=C(C([H])(C(=O)OC([H])([H])[H])C2([H])N([H])C([H])([H])C([H])([H])C([H])([H])C2([H])[H])C([H])=C1[H],METHYLPHENIDATE (RITALIN),Methylphenidate,methyl phenyl(piperidin-2-yl)acetate,5902,DTXSID5023299,COC(=O)C(C1CCCCN1)c1ccccc1,"InChI=1S/C14H19NO2/c1-17-14(16)13(11-7-3-2-4-8-11)12-9-5-6-10-15-12/h2-4,7-8,12-13,15H,5-6,9-10H2,1H3",DUGOZIWVEXMGBE-UHFFFAOYSA-N,?,,"HANSCH,C ET AL. (1995); pH 7.2",0.2
101261,113-48-4,113-48-4,[H]C1=C([H])C2([H])C([H])([H])C1([H])C1([H])C(=O)N(C([H])([H])C([H])(C([H])([H])C([H])([H])[H])C([H])([H])C([H])([H])C([H])([H])C([H])([H])[H])C(=O)C21[H],MGK 264,MGK-264,"2-(2-ethylhexyl)-3a,4,7,7a-tetrahydro-1H-4,7-methanoisoindole-1,3(2H)-dione",5903,DTXSID6032562,CCC(CN1C(=O)C2C(C3CC2C=C3)C1=O)CCCC,"InChI=1S/C17H25NO2/c1-3-5-6-11(4-2)10-18-16(19)14-12-7-8-13(9-12)15(14)17(18)20/h7-8,11-15H,3-6,9-10H2,1-2H3",WLLGXSLBOPFWQV-UHFFFAOYSA-N,?,,"TOMLIN,C (1994)",3.7
101263,113-59-7,113-59-7,[H]C1=C([H])C2=C(C([H])=C1[H])/C(=C(\[H])C([H])([H])C([H])([H])N(C([H])([H])[H])C([H])([H])[H])C1=C([H])C(Cl)=C([H])C([H])=C1S2,CHLORPROTHIXENE,Chlorprothixene,"(3E)-3-(2-chloro-9H-thioxanthen-9-ylidene)-N,N-dimethylpropan-1-amine",5905,DTXSID4022810,CN(C)CCC=C1c2ccccc2Sc2ccc(Cl)cc21,"InChI=1S/C18H18ClNS/c1-20(2)11-5-7-14-15-6-3-4-8-17(15)21-18-10-9-13(19)12-16(14)18/h3-4,6-10,12H,5,11H2,1-2H3/b14-7-",WSPOMRSOLSGNFJ-AUWJEWJLSA-N,?,,"HANSCH,C ET AL. (1995)",5.18
101264,114-07-8,114-07-8,[H]OC1([H])C([H])(OC2([H])C([H])(C([H])([H])[H])C([H])(OC3([H])OC([H])(C([H])([H])[H])C([H])(O[H])C(OC([H])([H])[H])(C([H])([H])[H])C3([H])[H])C([H])(C([H])([H])[H])C(=O)OC([H])(C([H])([H])C([H])([H])[H])C(O[H])(C([H])([H])[H])C([H])(O[H])C([H])(C([H])([H])[H])C(=O)C([H])(C([H])([H])[H])C([H])([H])C2(O[H])C([H])([H])[H])OC([H])(C([H])([H])[H])C([H])([H])C1([H])N(C([H])([H])[H])C([H])([H])[H],ERYTHROMYCIN,Erythromycin,"(3R,4S,5S,6R,7R,9R,11R,12R,13S,14R)-6-{[(2S,3R,4S,6R)-4-(dimethylamino)-3-hydroxy-6-methyltetrahydro-2H-pyran-2-yl]oxy}-14-ethyl-7,12,13-trihydroxy-4-{[(2R,4R,5S,6S)-5-hydroxy-4-methoxy-4,6-dimethyltetrahydro-2H-pyran-2-yl]oxy}-3,5,7,9,11,13-hexamethyloxacyclotetradecane-2,10-dione",5906,DTXSID4022991,COC1(C)CC(OC2C(C)C(=O)OC(CC)C(C)(O)C(O)C(C)C(=O)C(C)CC(C)(O)C(OC3OC(C)CC(C3O)N(C)C)C2C)OC(C)C1O,"InChI=1S/C37H67NO13/c1-14-25-37(10,45)30(41)20(4)27(39)18(2)16-35(8,44)32(51-34-28(40)24(38(11)12)15-19(3)47-34)21(5)29(22(6)33(43)49-25)50-26-17-36(9,46-13)31(42)23(7)48-26/h18-26,28-32,34,40-42,44-45H,14-17H2,1-13H3",ULGZDMOVFRHVEP-UHFFFAOYSA-N,?,,"MCFARLAND,JW ET AL. (1997)",3.06
101265,114-26-1,114-26-1,[H]C1=C([H])C(OC(=O)N([H])C([H])([H])[H])=C(OC([H])(C([H])([H])[H])C([H])([H])[H])C([H])=C1[H],PROPOXUR,Propoxur,2-(propan-2-yloxy)phenyl methylcarbamate,5907,DTXSID7021948,CNC(=O)Oc1ccccc1OC(C)C,"InChI=1S/C11H15NO3/c1-8(2)14-9-6-4-5-7-10(9)15-11(13)12-3/h4-8H,1-3H3,(H,12,13)",ISRUGXGCCGIOQO-UHFFFAOYSA-N,?,,"HANSCH,C ET AL. (1995)",1.52
101267,114-38-5,114-38-5,[H]C1=C([H])C([H])=C(N([H])C(=O)N([H])[H])C(Cl)=C1[H],O-CHLOROPHENYLUREA,(2-Chlorophenyl)urea,(2-CHLOROPHENYL)UREA,5909,DTXSID1074460,NC(=O)Nc1ccccc1Cl,"InChI=1S/C7H7ClN2O/c8-5-3-1-2-4-6(5)10-7(9)11/h1-4H,(H3,9,10,11)",ASPIQYFYSMQBHA-UHFFFAOYSA-N,?,,"HANSCH,C ET AL. (1995)",1.27
101268,114-86-3,114-86-3,[H]/N=C(\N([H])/C(=N/[H])N([H])[H])N([H])C([H])([H])C([H])([H])C1=C([H])C([H])=C([H])C([H])=C1[H],PHENFORMIN,Phenformin,N-(2-phenylethyl)imidodicarbonimidic diamide,5910,DTXSID1023449,NC(=N)NC(=N)NCCc1ccccc1,"InChI=1S/C10H15N5/c11-9(12)15-10(13)14-7-6-8-4-2-1-3-5-8/h1-5H,6-7H2,(H6,11,12,13,14,15)",ICFJFFQQTFMIBG-UHFFFAOYSA-N,?,,"HANSCH,C ET AL. (1995)",-0.83
101269,115-02-6,115-02-6,[H]N=[N+]=C([H])C(=O)OC([H])([H])C([H])(C(=O)O[H])N([H])[H],AZASERINE,Azaserine,O-(diazoacetyl)-L-serine,5911,DTXSID9020118,NC(COC(=O)C=[N+]=N)C(O)=O,"InChI=1S/C5H7N3O4/c6-3(5(10)11)2-12-4(9)1-8-7/h1,3,7H,2,6H2/p+1",LMTILILZEHPNAP-UHFFFAOYSA-O,?,,"ELLINGTON,JT & STANCIL,FE (1988)",-2.0
101272,115-10-6,115-10-6,[H]C([H])([H])OC([H])([H])[H],DIMETHYL ETHER,Dimethyl ether,C2H6O,5913,DTXSID8026937,COC,InChI=1S/C2H6O/c1-3-2/h1-2H3,LCGLNKUTAGEVQW-UHFFFAOYSA-N,?,,"HANSCH,C ET AL. (1995)",0.1
101273,115-11-7,115-11-7,[H]C([H])=C(C([H])([H])[H])C([H])([H])[H],ISOBUTENE,Isobutene,2-methylprop-1-ene,5914,DTXSID9020748,CC(C)=C,"InChI=1S/C4H8/c1-4(2)3/h1H2,2-3H3",VQTUBCCKSQIDNK-UHFFFAOYSA-N,?,,"HANSCH,C ET AL. (1995)",2.34
101274,115-19-5,115-19-5,[H]C#CC(O[H])(C([H])([H])[H])C([H])([H])[H],2-METHYL-3-BUTYN-2-OL,2-Methyl-3-butyn-2-ol,2-methylbut-3-yn-2-ol,5915,DTXSID2021949,CC(C)(O)C#C,"InChI=1S/C5H8O/c1-4-5(2,3)6/h1,6H,2-3H3",CEBKHWWANWSNTI-UHFFFAOYSA-N,?,,"HANSCH,C ET AL. (1995)",0.28
101276,115-29-7|959-98-8,115-29-7,[H]C1([H])OS(=O)OC([H])([H])C2([H])C3(Cl)C(Cl)=C(Cl)C(Cl)(C3(Cl)Cl)C12[H],"ENDOSULFAN, A-ENDOSULFAN",Endosulfan,"6,7,8,9,10,10-hexachloro-1,5,5a,6,9,9a-hexahydro-6,9-methano-2,4,3-benzodioxathiepine 3-oxide",5917|7668,DTXSID1020560,O=S1OCC2C(CO1)C1(Cl)C(Cl)=C(Cl)C2(Cl)C1(Cl)Cl,"InChI=1S/C9H6Cl6O3S/c10-5-6(11)8(13)4-2-18-19(16)17-1-3(4)7(5,12)9(8,14)15/h3-4H,1-2H2",RDYMFSUJUZBWLH-UHFFFAOYSA-N,?,,"HANSCH,C ET AL. (1995)",3.83
101277,115-32-2,115-32-2,[H]OC(C1=C([H])C([H])=C(Cl)C([H])=C1[H])(C1=C([H])C([H])=C(Cl)C([H])=C1[H])C(Cl)(Cl)Cl,DICOFOL,Dicofol,"2,2,2-trichloro-1,1-bis(4-chlorophenyl)ethanol",5918,DTXSID4020450,OC(c1ccc(Cl)cc1)(c1ccc(Cl)cc1)C(Cl)(Cl)Cl,"InChI=1S/C14H9Cl5O/c15-11-5-1-9(2-6-11)13(20,14(17,18)19)10-3-7-12(16)8-4-10/h1-8,20H",UOAMTSKGCBMZTC-UHFFFAOYSA-N,?,,"SAITO,H ET AL. (1993)",5.02
101278,115-38-8,115-38-8,[H]C1=C([H])C([H])=C(C2(C([H])([H])C([H])([H])[H])C(=O)N([H])C(=O)N(C([H])([H])[H])C2=O)C([H])=C1[H],MEPHOBARBITAL,Mephobarbital,"5-ethyl-1-methyl-5-phenylpyrimidine-2,4,6(1H,3H,5H)-trione",5919,DTXSID4023258,CCC1(c2ccccc2)C(=O)NC(=O)N(C)C1=O,"InChI=1S/C13H14N2O3/c1-3-13(9-7-5-4-6-8-9)10(16)14-12(18)15(2)11(13)17/h4-8H,3H2,1-2H3,(H,14,16,18)",ALARQZQTBTVLJV-UHFFFAOYSA-N,?,,"HANSCH,C ET AL. (1995)",1.84
101280,115-44-6,115-44-6,[H]C([H])=C([H])C([H])([H])C1(C([H])(C([H])([H])[H])C([H])([H])C([H])([H])[H])C(=O)N([H])C(=O)N([H])C1=O,"BARBITURIC ACID, ALLYL,SEC-BUTYL",Talbutal,"5-(butan-2-yl)-5-(prop-2-en-1-yl)pyrimidine-2,4,6(1H,3H,5H)-trione",5921,DTXSID8023630,CCC(C)C1(CC=C)C(=O)NC(=O)NC1=O,"InChI=1S/C11H16N2O3/c1-4-6-11(7(3)5-2)8(14)12-10(16)13-9(11)15/h4,7H,1,5-6H2,2-3H3,(H2,12,13,14,15,16)",BJVVMKUXKQHWJK-UHFFFAOYSA-N,?,,"HANSCH,C ET AL. (1995)",1.47
101281,115-56-0,115-56-0,[H]C([H])=C(C([H])([H])[H])C([H])([H])C1(C([H])([H])C([H])([H])[H])C(=O)N([H])C(=S)N([H])C1=O,"BARBITURIC,2-THIO-5-ET-5-MEALLYL",Methallatal,"5-ethyl-5-(2-methylprop-2-enyl)-2-sulfanylidene-1,3-diazinane-4,6-dione",5922,DTXSID70150920,CC(=C)CC1(CC)C(=O)NC(=S)NC1=O,"InChI=1S/C10H14N2O2S/c1-4-10(5-6(2)3)7(13)11-9(15)12-8(10)14/h2,4-5H2,1,3H3,(H2,11,12,13,14,15)",XMQICEWOKPEQRG-UHFFFAOYSA-N,?,,"HANSCH,C ET AL. (1995)",2.19
101282,115-58-2,115-58-2,[H]N1C(=O)N([H])C(=O)C(C([H])([H])C([H])([H])[H])(C([H])([H])C([H])([H])C([H])([H])C([H])([H])C([H])([H])[H])C1=O,"BARBITURIC ACID, 5-ET-5-AMYL",,,5923,DTXSID60871596,CCCCCC1(CC)C(=O)NC(=O)NC1=O,"InChI=1S/C11H18N2O3/c1-3-5-6-7-11(4-2)8(14)12-10(16)13-9(11)15/h3-7H2,1-2H3,(H2,12,13,14,15,16)",XYGXSCVUMIDZRR-UHFFFAOYSA-N,?,,"HANSCH,C ET AL. (1995)",2.24
101284,115-86-6,115-86-6,[H]C1=C([H])C([H])=C(OP(=O)(OC2=C([H])C([H])=C([H])C([H])=C2[H])OC2=C([H])C([H])=C([H])C([H])=C2[H])C([H])=C1[H],TRIPHENYLPHOSPHATE,Triphenyl phosphate,triphenyl phosphate,5925,DTXSID1021952,O=P(Oc1ccccc1)(Oc1ccccc1)Oc1ccccc1,"InChI=1S/C18H15O4P/c19-23(20-16-10-4-1-5-11-16,21-17-12-6-2-7-13-17)22-18-14-8-3-9-15-18/h1-15H",XZZNDPSIHUTMOC-UHFFFAOYSA-N,?,,"HANSCH,C ET AL. (1995)",4.59
101285,115-90-2,115-90-2,[H]C1=C([H])C(S(=O)C([H])([H])[H])=C([H])C([H])=C1OP(=S)(OC([H])([H])C([H])([H])[H])OC([H])([H])C([H])([H])[H],FENSULFOTHION,Fensulfothion,"O,O-diethyl O-[4-(methylsulfinyl)phenyl] phosphorothioate",5926,DTXSID6021953,CS(=O)c1ccc(cc1)OP(=S)(OCC)OCC,"InChI=1S/C11H17O4PS2/c1-4-13-16(17,14-5-2)15-10-6-8-11(9-7-10)18(3)12/h6-9H,4-5H2,1-3H3",XDNBJTQLKCIJBV-UHFFFAOYSA-N,?,,"HANSCH,C ET AL. (1995)",2.23
101286,115-95-7,115-95-7,[H]C([H])=C([H])C(OC(=O)C([H])([H])[H])(C([H])([H])[H])C([H])([H])C([H])([H])C([H])=C(C([H])([H])[H])C([H])([H])[H],LINALYL ACETATE,Linalyl acetate,"3,7-dimethylocta-1,6-dien-3-yl acetate",5927,DTXSID7026946,CC(C)=CCCC(C)(C=C)OC(C)=O,"InChI=1S/C12H20O2/c1-6-12(5,14-11(4)13)9-7-8-10(2)3/h6,8H,1,7,9H2,2-5H3",UWKAYLJWKGQEPM-UHFFFAOYSA-N,?,,"GRIFFIN,S ET AL. (1999)",3.93
101288,116-06-3,116-06-3,[H]/C(=N\OC(=O)N([H])C([H])([H])[H])C(SC([H])([H])[H])(C([H])([H])[H])C([H])([H])[H],ALDICARB,Aldicarb,"7,7-dimethyl-4-oxa-8-thia-2,5-diazanon-5-en-3-one",5929,DTXSID0039223,CNC(=O)ON=CC(C)(C)SC,"InChI=1S/C7H14N2O2S/c1-7(2,12-4)5-9-11-6(10)8-3/h5H,1-4H3,(H,8,10)/b9-5+",QGLZXHRNAYXIBU-WEVVVXLNSA-N,?,,"HANSCH,C ET AL. (1995)",1.13
101289,116-29-0,116-29-0,[H]C1=C([H])C(S(=O)(=O)C2=C(Cl)C([H])=C(Cl)C(Cl)=C2[H])=C([H])C([H])=C1Cl,TETRADIFON,Tetradifon,"4-chlorophenyl 2,4,5-trichlorophenyl sulfone",5930,DTXSID7021316,O=S(=O)(c1cc(Cl)c(Cl)cc1Cl)c1ccc(Cl)cc1,"InChI=1S/C12H6Cl4O2S/c13-7-1-3-8(4-2-7)19(17,18)12-6-10(15)9(14)5-11(12)16/h1-6H",MLGCXEBRWGEOQX-UHFFFAOYSA-N,?,,"TOMLIN,C (1997)",4.61
101290,116-53-0,116-53-0,[H]OC(=O)C([H])(C([H])([H])[H])C([H])([H])C([H])([H])[H],"BUTANOIC ACID, 2-METHYL-",2-Methylbutanoic acid,2-methylbutanoic acid,5931,DTXSID5021621,CCC(C)C(O)=O,"InChI=1S/C5H10O2/c1-3-4(2)5(6)7/h4H,3H2,1-2H3,(H,6,7)",WLAMNBDJUVNPJU-UHFFFAOYSA-N,?,,"HANSCH,C ET AL. (1995)",1.18
101292,117-34-0,117-34-0,[H]OC(=O)C([H])(C1=C([H])C([H])=C([H])C([H])=C1[H])C1=C([H])C([H])=C([H])C([H])=C1[H],DIPHENYLACETIC ACID,"Benzeneacetic acid, .alpha.-phenyl-","2,2-di(phenyl)acetic acid",5933,DTXSID0059453,OC(=O)C(c1ccccc1)c1ccccc1,"InChI=1S/C14H12O2/c15-14(16)13(11-7-3-1-4-8-11)12-9-5-2-6-10-12/h1-10,13H,(H,15,16)",PYHXGXCGESYPCW-UHFFFAOYSA-N,?,,"HANSCH,C ET AL. (1995)",3.09
101293,117-37-3,117-37-3,[H]C1=C([H])C2=C(C(=O)C([H])(C3=C([H])C([H])=C(OC([H])([H])[H])C([H])=C3[H])C2=O)C([H])=C1[H],"1H-INDENE-1,3(2H)-DIONE, 2-(4-METHOXYPHENYL)-",Anisindione,"2-(4-methoxyphenyl)-1H-indene-1,3(2H)-dione",5934,DTXSID3022611,COc1ccc(cc1)C1C(=O)c2ccccc2C1=O,"InChI=1S/C16H12O3/c1-19-11-8-6-10(7-9-11)14-15(17)12-4-2-3-5-13(12)16(14)18/h2-9,14H,1H3",XRCFXMGQEVUZFC-UHFFFAOYSA-N,?,,SANGSTER (1993),2.88