ChemID,source_casrn,CAS,SMILES,NAME,preferred_name,iupac,MPID,dsstox_substance_id,Canonical_QSARr,InChI_Code_QSARr,InChI Key_QSARr,Salt_Solvent,Salt_Solvent_ID,Kow Reference,LogP
103865,2426-12-2,2426-12-2,[H]C1=C([H])C([H])=C(/C([H])=N/OC(=O)N([H])C([H])([H])[H])C([H])=C1[H],"BENZALDEHYDE,O-((MEAMINO)CO)OXIME",,,8382,DTXSID00879455,CNC(=O)ON=Cc1ccccc1,"InChI=1S/C9H10N2O2/c1-10-9(12)13-11-7-8-5-3-2-4-6-8/h2-7H,1H3,(H,10,12)/b11-7+",JFKAXYALXMIROV-YRNVUSSQSA-N,?,,"HANSCH,C ET AL. (1995)",1.49
103866,2427-90-9,2427-90-9,[H]C1=NC(C(=O)OC([H])([H])C([H])([H])[H])=C(C(=O)OC([H])([H])C([H])([H])[H])N=C1[H],"2,3-PYRAZINEDICARBOXYLIC ACID, DIETHYL ESTER",,,8383,DTXSID70875964,CCOC(=O)c1[n]cc[n]c1C(=O)OCC,"InChI=1S/C10H12N2O4/c1-3-15-9(13)7-8(10(14)16-4-2)12-6-5-11-7/h5-6H,3-4H2,1-2H3",FCOTXDSQWWDSPX-UHFFFAOYSA-N,?,,"YAMAGAMI,C ET AL. (1991)",0.65
103868,2436-66-0,2436-66-0,[H]C1=NC2=C([H])C([H])=C([H])C([H])=C2C(=O)N1C([H])([H])[H],"4(3H)-QUINAZOLINONE, 3-METHYL-","4(3H)-Quinazolinone, 3-methyl-",3-methylquinazolin-4-one,8385,DTXSID10179099,CN1C=Nc2ccccc2C1=O,"InChI=1S/C9H8N2O/c1-11-6-10-8-5-3-2-4-7(8)9(11)12/h2-6H,1H3",FJVAQPINJBFBLI-UHFFFAOYSA-N,?,,POMONA (1987),0.69
103869,2437-49-2,2437-49-2,[H]OC1=C(Br)C([H])=C(Br)C(O[H])=C1Br,"2,4,6-TRIBROMORESORCINOL","2,4,6-Tribromoresorcinol","2,4,6-tribromobenzene-1,3-diol",8386,DTXSID90179113,Oc1c(Br)cc(Br)c(O)c1Br,"InChI=1S/C6H3Br3O2/c7-2-1-3(8)6(11)4(9)5(2)10/h1,10-11H",YADZSMVDNYXOOB-UHFFFAOYSA-N,?,,"HANSCH,C ET AL. (1995)",4.37
103870,2437-79-8,2437-79-8,[H]C1=C(Cl)C([H])=C(Cl)C(C2=C([H])C([H])=C(Cl)C([H])=C2Cl)=C1[H],"2,2',4,4'-TETRACHLOROBIPHENYL","2,2',4,4'-Tetrachlorobiphenyl","2,2',4,4'-tetrachlorobiphenyl",8387,DTXSID0022513,Clc1cc(Cl)c(cc1)-c1ccc(Cl)cc1Cl,InChI=1S/C12H6Cl4/c13-7-1-3-9(11(15)5-7)10-4-2-8(14)6-12(10)16/h1-6H,QORAVNMWUNPXAO-UHFFFAOYSA-N,?,,"HANSCH,C ET AL. (1995)",6.29
103872,2438-72-4,2438-72-4,[H]ON([H])C(=O)C([H])([H])C1=C([H])C([H])=C(OC([H])([H])C([H])([H])C([H])([H])C([H])([H])[H])C([H])=C1[H],BUFEXAMIC ACID,Bufexamac,2-(4-butoxyphenyl)-N-hydroxyacetamide,8389,DTXSID7045368,CCCCOc1ccc(CC(=O)NO)cc1,"InChI=1S/C12H17NO3/c1-2-3-8-16-11-6-4-10(5-7-11)9-12(14)13-15/h4-7,15H,2-3,8-9H2,1H3,(H,13,14)",MXJWRABVEGLYDG-UHFFFAOYSA-N,?,,"HANSCH,C ET AL. (1995)",2.08
103873,2438-76-8,2922-45-4,[H]C1=NC([H])=C(S(=O)(=O)N([H])[H])C([H])=C1[H],3-SULFONAMIDOPYRIDINE,pyridine-3-sulfonamide,C5H6N2O2S,8390,DTXSID70283227,NS(=O)(=O)c1c[n]ccc1,"InChI=1S/C5H6N2O2S/c6-10(8,9)5-2-1-3-7-4-5/h1-4H,(H2,6,8,9)",NKFLEFWUYAUDJV-UHFFFAOYSA-N,?,,"HANSCH,C ET AL. (1995)",-0.49
103874,2439-01-2,2439-01-2,[H]C1=C2N=C3SC(=O)SC3=NC2=C([H])C(C([H])([H])[H])=C1[H],OXYTHIOQUINOX,Chinomethionate,"6-methyl[1,3]dithiolo[4,5-b]quinoxalin-2-one",8391,DTXSID2032342,Cc1cc2[n]c3SC(=O)Sc3[n]c2cc1,"InChI=1S/C10H6N2OS2/c1-5-2-3-6-7(4-5)12-9-8(11-6)14-10(13)15-9/h2-4H,1H3",FBQQHUGEACOBDN-UHFFFAOYSA-N,?,,"TOMLIN,C (2003)",3.78
103876,2439-77-2,2439-77-2,[H]C1=C([H])C(OC([H])([H])[H])=C(C(=O)N([H])[H])C([H])=C1[H],O-METHOXYBENZAMIDE,2-Methoxybenzamide,2-methoxybenzamide,8393,DTXSID6022189,COc1ccccc1C(N)=O,"InChI=1S/C8H9NO2/c1-11-7-5-3-2-4-6(7)8(9)10/h2-5H,1H3,(H2,9,10)",MNWSGMTUGXNYHJ-UHFFFAOYSA-N,?,,"HANSCH,C ET AL. (1995)",0.86
103877,2440-22-4,2440-22-4,[H]OC1=C([H])C([H])=C(C([H])([H])[H])C([H])=C1N1N=C2C(=N1)C([H])=C([H])C([H])=C2[H],2-(2-HYDROXY-5-METHYLPHENYL)BENZOTRIAZOLE,2-(2H-Benzotriazol-2-yl)-4-methylphenol,2-(2H-benzotriazol-2-yl)-4-methylphenol,8394,DTXSID1027479,Cc1cc(c(O)cc1)-[n]1[n]c2ccccc2[n]1,"InChI=1S/C13H11N3O/c1-9-6-7-13(17)12(8-9)16-14-10-4-2-3-5-11(10)15-16/h2-8,17H,1H3",MCPKSFINULVDNX-UHFFFAOYSA-N,?,,"HANSCH,C ET AL. (1995)",4.31
103878,2440-79-1,2440-79-1,[H]OC1=C([H])C([H])=C(C([H])([H])C([H])(C(=O)OC([H])([H])[H])N([H])C(=O)C([H])([H])[H])C([H])=C1[H],"TYROSINE-N-ACETYL,METHYL ESTER",,,8395,DTXSID20874326,CC(=O)NC(Cc1ccc(O)cc1)C(=O)OC,"InChI=1S/C12H15NO4/c1-8(14)13-11(12(16)17-2)7-9-3-5-10(15)6-4-9/h3-6,11,15H,7H2,1-2H3,(H,13,14)",KRMVXLWZDYZILN-UHFFFAOYSA-N,?,,"HANSCH,C ET AL. (1995)",0.33
103880,2444-89-5,2444-89-5,[H]C1=C([H])C(OC2=C([H])C([H])=C(Cl)C([H])=C2[H])=C([H])C([H])=C1Cl,"4,4'-Dichlorodiphenyl ether","4,4'-Dichlorodiphenyl ether",1-chloro-4-(4-chlorophenoxy)benzene,8397,DTXSID90179198,Clc1ccc(cc1)Oc1ccc(Cl)cc1,InChI=1S/C12H8Cl2O/c13-9-1-5-11(6-2-9)15-12-7-3-10(14)4-8-12/h1-8H,URUJZHZLCCIILC-UHFFFAOYSA-N,?,,"KURZ,J & BALLSCHMITER,K (1999)",5.25
103881,2446-62-0,2446-62-0,[H]C1=C([H])C([H])=C2C(=O)N3C(=NC2=C1[H])C([H])([H])C([H])([H])C([H])([H])C3([H])[H],"11H-PYRIDO[2,1-B]QUINAZOLIN-11-ONE, 6,7,8,9-TETR",STK099926,C12H12N2O,8398,DTXSID30335231,O=C1c2ccccc2N=C2CCCCN21,"InChI=1S/C12H12N2O/c15-12-9-5-1-2-6-10(9)13-11-7-3-4-8-14(11)12/h1-2,5-6H,3-4,7-8H2",LMDWOGWJYVSXEP-UHFFFAOYSA-N,?,,SANGSTER (1994),1.52
103882,2447-57-6,2447-57-6,[H]C1=NC(OC([H])([H])[H])=C(OC([H])([H])[H])C(N([H])S(=O)(=O)C2=C([H])C([H])=C(N([H])[H])C([H])=C2[H])=N1,"BENZENESULFONAMIDE, 4-AMINO-N-(5,6-DIMETHOXY-4-P",Sulfadoxine,"4-amino-N-(5,6-dimethoxypyrimidin-4-yl)benzenesulfonamide",8399,DTXSID6023608,COc1c(NS(=O)(=O)c2ccc(N)cc2)[n]c[n]c1OC,"InChI=1S/C12H14N4O4S/c1-19-10-11(14-7-15-12(10)20-2)16-21(17,18)9-5-3-8(13)4-6-9/h3-7H,13H2,1-2H3,(H,14,15,16)",PJSFRIWCGOHTNF-UHFFFAOYSA-N,?,,SANGSTER (1994),0.7
103885,2454-39-9,2454-39-9,[H]C1=C([H])C([H])=C(N([H])[H])C(C(=S)N([H])[H])=C1[H],O-AMINOTHIOBENZAMIDE,2-aminobenzenecarbothioamide,C7H8N2S,8401,DTXSID50364346,Nc1ccccc1C(N)=S,"InChI=1S/C7H8N2S/c8-6-4-2-1-3-5(6)7(9)10/h1-4H,8H2,(H2,9,10)",HPZKAJRFABCGFF-UHFFFAOYSA-N,?,,"HANSCH,C ET AL. (1995)",0.99
103886,2455-15-4,2455-15-4,[H]C1=C([H])C(C([H])([H])[H])=C([H])C(OC([H])([H])C([H])([H])N(C([H])([H])[H])C([H])([H])[H])=C1[H],"ETHANAMINE, N,N-DIMETHYL-2-(3-METHYLPHENOXY)-",,,8402,DTXSID90876579,Cc1cccc(c1)OCCN(C)C,"InChI=1S/C11H17NO/c1-10-5-4-6-11(9-10)13-8-7-12(2)3/h4-6,9H,7-8H2,1-3H3",YSOXHWYLPZLCFY-UHFFFAOYSA-N,?,,"AL-SAADI,D ET AL. (1993)",2.05
103887,2457-47-8,2457-47-8,[H]C1=NC([H])=C(Cl)C([H])=C1Cl,"3,5-DICHLOROPYRIDINE","Pyridine, 3,5-dichloro-","3,5-Dichloropyridine",8403,DTXSID60179307,Clc1c[n]cc(Cl)c1,InChI=1S/C5H3Cl2N/c6-4-1-5(7)3-8-2-4/h1-3H,WPGHPGAUFIJVJF-UHFFFAOYSA-N,?,,"HANSCH,C ET AL. (1995)",2.56
103889,2459-07-6,2459-07-6,[H]C1=NC(C(=O)OC([H])([H])[H])=C([H])C([H])=C1[H],"PICOLINIC ACID, METHYL ESTER","2-Pyridinecarboxylic acid, methyl ester",Methyl pyridine-2-carboxylate,8405,DTXSID4062432,COC(=O)c1cccc[n]1,"InChI=1S/C7H7NO2/c1-10-7(9)6-4-2-3-5-8-6/h2-5H,1H3",NMMIHXMBOZYNET-UHFFFAOYSA-N,?,,"HANSCH,C ET AL. (1995)",0.36
103890,2459-09-8,2459-09-8,[H]C1=NC([H])=C([H])C(C(=O)OC([H])([H])[H])=C1[H],"I-NICOTINIC ACID, METHYL ESTER","4-Pyridinecarboxylic acid, methyl ester",methyl pyridine-4-carboxylate,8406,DTXSID9062433,COC(=O)c1cc[n]cc1,"InChI=1S/C7H7NO2/c1-10-7(9)6-2-4-8-5-3-6/h2-5H,1H3",OLXYLDUSSBULGU-UHFFFAOYSA-N,?,,"HANSCH,C ET AL. (1995)",0.87
103891,2460-49-3,2460-49-3,[H]OC1=C([H])C(Cl)=C(Cl)C([H])=C1OC([H])([H])[H],"4,5-DICHLORO-2-METHOXYPHENOL","4,5-Dichloroguaiacol","4,5-dichloro-2-methoxyphenol",8407,DTXSID5022192,COc1cc(Cl)c(Cl)cc1O,"InChI=1S/C7H6Cl2O2/c1-11-7-3-5(9)4(8)2-6(7)10/h2-3,10H,1H3",HAAFFTHBNFBVKY-UHFFFAOYSA-N,?,,"HANSCH,C ET AL. (1995)",3.26
103893,2466-76-4,2466-76-4,[H]C1=NC([H])=C([H])N1C(=O)C([H])([H])[H],"1H-IMIDAZOLE, 1-ACETYL-","1H-Imidazole, 1-acetyl-",1-imidazol-1-ylethanone,8409,DTXSID8062440,CC(=O)[n]1c[n]cc1,"InChI=1S/C5H6N2O/c1-5(8)7-3-2-6-4-7/h2-4H,1H3",VIHYIVKEECZGOU-UHFFFAOYSA-N,?,,POMONA (1987),-0.34
103894,2474-50-2,2474-50-2,[H]C1=C2C(=C([H])C(C([H])([H])[H])=C1C([H])([H])[H])N([H])C(=O)C(=O)N2[H],"2,3-QUINOXALINEDIONE,1,4-DIHYDRO-6,7-DIMETHYL-","6,7-dimethylquinoxaline-2,3-diol",C10H10N2O2,8410,DTXSID20289673,Cc1cc2NC(=O)C(=O)Nc2cc1C,"InChI=1S/C10H10N2O2/c1-5-3-7-8(4-6(5)2)12-10(14)9(13)11-7/h3-4H,1-2H3,(H,11,13)(H,12,14)",HRVPYGLZESQRKK-UHFFFAOYSA-N,?,,"HANSCH,C ET AL. (1995)",1.34
103895,2481-53-0,2481-53-0,[H]C1=C([H])C(/C([H])=C(\[H])C(=O)C([H])([H])[H])=C([H])C(F)=C1[H],"3-Buten-2-one,4-(3-fluorophenyl)-",,,8411,DTXSID50876252,CC(=O)C=Cc1cccc(F)c1,"InChI=1S/C10H9FO/c1-8(12)5-6-9-3-2-4-10(11)7-9/h2-7H,1H3/b6-5+",HMPIVEBXKYNVET-AATRIKPKSA-N,?,,"YAMAGAMI,C ET AL. (1998)",2.25
103897,2486-52-4,2486-52-4,[H]OC(=O)C1=C([H])C([H])=C(N([H])[H])C([H])=C1Br,2-BR-4-AMINOBENZOIC ACID,4-Amino-2-bromobenzoic acid,C7H6BrNO2,8413,DTXSID20315300,Nc1ccc(C(O)=O)c(Br)c1,"InChI=1S/C7H6BrNO2/c8-6-3-4(9)1-2-5(6)7(10)11/h1-3H,9H2,(H,10,11)",AQBXIOGPHBWBFP-UHFFFAOYSA-N,?,,"HANSCH,C ET AL. (1995)",1.49
103898,2486-70-6,2486-70-6,[H]OC(=O)C1=C([H])C([H])=C(N([H])[H])C(C([H])([H])[H])=C1[H],4-AMINO-M-TOLUIC ACID,4-Amino-3-methylbenzoic acid,4-Amino-3-methylbenzoic acid,8414,DTXSID40179562,Cc1cc(ccc1N)C(O)=O,"InChI=1S/C8H9NO2/c1-5-4-6(8(10)11)2-3-7(5)9/h2-4H,9H2,1H3,(H,10,11)",NHFKECPTBZZFBC-UHFFFAOYSA-N,?,,SANGSTER (1994),1.37
103899,2486-75-1,2486-75-1,[H]OC(=O)C1=C([H])C([H])=C(N([H])[H])C([H])=C1C([H])([H])[H],"BENZOIC ACID, 4-AMINO-2-METHYL-",4-amino-2-methylbenzoic acid,C8H9NO2,8415,DTXSID80287155,Cc1cc(N)ccc1C(O)=O,"InChI=1S/C8H9NO2/c1-5-4-6(9)2-3-7(5)8(10)11/h2-4H,9H2,1H3,(H,10,11)",XRSQZFJLEPBPOZ-UHFFFAOYSA-N,?,,SANGSTER (1994),1.14
103901,2486-79-5,2486-79-5,[H]OC(=O)C1=C([H])C([H])=C(N([H])[H])C([H])=C1OC([H])([H])C([H])([H])C([H])([H])[H],2-PROPOXY-4-AMINOBENZOIC ACID,,,8417,DTXSID60876041,CCCOc1cc(N)ccc1C(O)=O,"InChI=1S/C10H13NO3/c1-2-5-14-9-6-7(11)3-4-8(9)10(12)13/h3-4,6H,2,5,11H2,1H3,(H,12,13)",CRLNBJGBAUCAMP-UHFFFAOYSA-N,?,,"HANSCH,C ET AL. (1995)",1.53
103902,2486-80-8,2486-80-8,[H]OC(=O)C1=C([H])C([H])=C(N([H])[H])C([H])=C1OC([H])([H])[H],"BENZOIC ACID, 4-AMINO-2-METHOXY-",4-Amino-o-anisic acid,4-Amino-2-methoxybenzoic acid,8418,DTXSID60179564,COc1cc(N)ccc1C(O)=O,"InChI=1S/C8H9NO3/c1-12-7-4-5(9)2-3-6(7)8(10)11/h2-4H,9H2,1H3,(H,10,11)",OLJXRTRRJSMURJ-UHFFFAOYSA-N,?,,SANGSTER (1994),0.45
103903,,2488-78-0,[H]OC12C([H])([H])C([H])([H])C([H])(C3=C([H])C(=O)OC3([H])[H])C1(C([H])([H])[H])C([H])([H])C([H])([H])C1([H])C2([H])C([H])([H])C([H])([H])C2([H])C([H])([H])C([H])(OS(=O)(=O)O[H])C([H])([H])C([H])([H])C21C([H])([H])[H],DIGITOXIGENIN-3-A-SULFATE,,,8419,,CC12CCC(CC1CCC1C2CCC2(C)C(CCC21O)C1COC(=O)C=1)OS(O)(=O)=O,"InChI=1S/C23H34O7S/c1-21-8-5-16(30-31(26,27)28)12-15(21)3-4-19-18(21)6-9-22(2)17(7-10-23(19,22)25)14-11-20(24)29-13-14/h11,15-19,25H,3-10,12-13H2,1-2H3,(H,26,27,28)",FNWNMVFHQXKXPR-UHFFFAOYSA-N,?,,SANGSTER (1994),-0.14
103906,2492-87-7|3150-24-1,3150-24-1,[H]OC([H])([H])C1([H])OC([H])(OC2=C([H])C([H])=C([N+](=O)[O-])C([H])=C2[H])C([H])(O[H])C([H])(O[H])C1([H])O[H],"BETA-D-GLUCOPYRANOSIDE, 4-NITROPHENYL, GALACTOPYRANOSIDE,2-NITROPHENYL",4-Nitrophenylgalactoside,"(2R,3R,4S,5R,6S)-2-(hydroxymethyl)-6-(4-nitrophenoxy)oxane-3,4,5-triol",8421|8666,DTXSID40185401,[O-][N+](=O)c1ccc(cc1)OC1OC(CO)C(O)C(O)C1O,"InChI=1S/C12H15NO8/c14-5-8-9(15)10(16)11(17)12(21-8)20-7-3-1-6(2-4-7)13(18)19/h1-4,8-12,14-17H,5H2",IFBHRQDFSNCLOZ-UHFFFAOYSA-N,?,,"HANSCH,C ET AL. (1995)",-0.44
103908,2495-37-6,2495-37-6,[H]C([H])=C(C(=O)OC([H])([H])C1=C([H])C([H])=C([H])C([H])=C1[H])C([H])([H])[H],BENZYL METHACRYLATE,Benzyl methacrylate,benzyl 2-methylprop-2-enoate,8422,DTXSID0022193,CC(=C)C(=O)OCc1ccccc1,"InChI=1S/C11H12O2/c1-9(2)11(12)13-8-10-6-4-3-5-7-10/h3-7H,1,8H2,2H3",AOJOEFVRHOZDFN-UHFFFAOYSA-N,?,,SANGSTER (1993),2.53
103909,2497-06-5,2497-06-5,[H]C([H])([H])C([H])([H])OP(=S)(OC([H])([H])C([H])([H])[H])SC([H])([H])C([H])([H])S(=O)(=O)C([H])([H])C([H])([H])[H],DISULFOTON SULFONE,Disulfoton sulfone,"O,O-diethyl S-[2-(ethylsulfonyl)ethyl] phosphorodithioate",8423,DTXSID8041901,CCS(=O)(=O)CCSP(=S)(OCC)OCC,"InChI=1S/C8H19O4PS3/c1-4-11-13(14,12-5-2)15-7-8-16(9,10)6-3/h4-8H2,1-3H3",BKVJOVPVLOJPKJ-UHFFFAOYSA-N,?,,"HANSCH,C ET AL. (1995)",1.87
103912,2498-66-0,2498-66-0,[H]C1=C([H])C2=C([H])C([H])=C3C(=O)C4=C(C(=O)C3=C2C([H])=C1[H])C([H])=C([H])C([H])=C4[H],"BENZ A ANTHRACENE-7,12-DIONE","7,12-Benz(a)anthraquinone","tetraphene-7,12-dione",8425,DTXSID8051916,O=C1c2ccc3ccccc3c2C(=O)c2ccccc12,InChI=1S/C18H10O2/c19-17-13-7-3-4-8-14(13)18(20)16-12-6-2-1-5-11(12)9-10-15(16)17/h1-10H,LHMRXAIRPKSGDE-UHFFFAOYSA-N,?,,CHEMICALS INSPECTION AND TESTING INSTITU (1992),4.4
103915,2510-86-3,2510-86-3,[H]C1=C([H])C([H])=C(OP(=O)(OC([H])([H])C([H])([H])[H])OC([H])([H])C([H])([H])[H])C([H])=C1[H],"O,O-DIETHYL-O-PHENYLPHOSPHATE","Phosphoric acid, diethyl phenyl ester (8CI)(9CI)",Diethyl phenyl phosphate,8426,DTXSID60179786,CCOP(=O)(Oc1ccccc1)OCC,"InChI=1S/C10H15O4P/c1-3-12-15(11,13-4-2)14-10-8-6-5-7-9-10/h5-9H,3-4H2,1-2H3",DHTQKXHLXVUBCF-UHFFFAOYSA-N,?,,"HANSCH,C ET AL. (1995)",1.64
103917,2511-17-3,2511-17-3,[H]C([H])([H])N(C([H])([H])[H])P(=O)(N(C([H])([H])[H])C([H])([H])[H])C([H])([H])[H],"PHOSPHONIC DIAMIDE, PENTAMETHYL-",Pentamethylphosphonic diamide,N-(dimethylamino-methylphosphoryl)-N-methylmethanamine,8427,DTXSID50179795,CP(=O)(N(C)C)N(C)C,"InChI=1S/C5H15N2OP/c1-6(2)9(5,8)7(3)4/h1-5H3",YRWJRJCUZYGLPN-UHFFFAOYSA-N,?,,"DEBORD,J & LABADIE,M (1985)",-0.67
103919,2516-72-5,2516-72-5,C[N+]1=CC=CC2=CC=CC=C21,N-ME QUINOLINIUM BROMIDE,PUBCHEM_14291457,C10H10BrN,8429,DTXSID50558526,C[n+]1cccc2ccccc12,"InChI=1S/C10H10N/c1-11-8-4-6-9-5-2-3-7-10(9)11/h2-8H,1H3/q+1",RTQPKEOYPPMVGQ-UHFFFAOYSA-N,[Br-],3,"HANSCH,C ET AL. (1995)",-2.64
103920,2516-95-2,2516-95-2,[H]OC(=O)C1=C([H])C(Cl)=C([H])C([H])=C1[N+](=O)[O-],2-NITRO-5-CHLOROBENZOIC ACID,"Benzoic acid, 5-chloro-2-nitro-",5-Chloro-2-nitrobenzoic acid,8430,DTXSID4062484,[O-][N+](=O)c1ccc(Cl)cc1C(O)=O,"InChI=1S/C7H4ClNO4/c8-4-1-2-6(9(12)13)5(3-4)7(10)11/h1-3H,(H,10,11)",ZKUYSJHXBFFGPU-UHFFFAOYSA-N,?,,"HANSCH,C ET AL. (1995)",2.13
103921,2516-96-3,2516-96-3,[H]OC(=O)C1=C(Cl)C([H])=C([H])C([N+](=O)[O-])=C1[H],2-CHLORO-5-NITROBENZOIC ACID,"Benzoic acid, 2-chloro-5-nitro-",2-chloro-5-(dihydroxyamino)benzoic acid,8431,DTXSID9062485,[O-][N+](=O)c1cc(C(O)=O)c(Cl)cc1,"InChI=1S/C7H4ClNO4/c8-6-2-1-4(9(12)13)3-5(6)7(10)11/h1-3H,(H,10,11)",QUEKGYQTRJVEQC-UHFFFAOYSA-N,?,,"HANSCH,C ET AL. (1995)",2.03
103923,2518-42-5,2518-42-5,CC1=NO[N+]([O-])=C1C,"FURAZAN, DIMETHYL-, 2-OXIDE",Dimethylfurazan monoxide,"3,4-dimethyl-2-oxido-1,2,5-oxadiazol-2-ium",8433,DTXSID80179849,Cc1c(C)[n]o[n+]1[O-],InChI=1S/C4H6N2O2/c1-3-4(2)6(7)8-5-3/h1-2H3,YQPMTPLDOVSQDU-UHFFFAOYSA-N,?,,"CALVINO,R ET AL. (1992)",0.23
103924,2518-72-1,2518-72-1,[H]N1C(=O)N([H])C(=O)C([H])(C([H])([H])C([H])([H])[H])C1=O,5-ETHYLBARBITURIC ACID,5-Ethylbarbituric acid,"5-ethyl-1,3-diazinane-2,4,6-trione",8434,DTXSID90179850,CCC1C(=O)NC(=O)NC1=O,"InChI=1S/C6H8N2O3/c1-2-3-4(9)7-6(11)8-5(3)10/h3H,2H2,1H3,(H2,7,8,9,10,11)",FMTLDVACNZDTQL-UHFFFAOYSA-N,?,,"HANSCH,C ET AL. (1995)",-0.35
103925,2519-75-7,2519-75-7,[H]C1=C([H])C(C([H])([H])[H])=C(Cl)C([H])=C1N([H])C([H])([H])C([H])([H])N(C([H])([H])C([H])([H])[H])C([H])([H])C([H])([H])[H],"N-DIETHYLAMINOETANILINE,3-CL-4-ME",Mirasan,"N'-(3-chloro-4-methylphenyl)-N,N-diethylethane-1,2-diamine",8435,DTXSID30179859,Cc1ccc(cc1Cl)NCCN(CC)CC,"InChI=1S/C13H21ClN2/c1-4-16(5-2)9-8-15-12-7-6-11(3)13(14)10-12/h6-7,10,15H,4-5,8-9H2,1-3H3",PYCSFZRHAYWHQB-UHFFFAOYSA-N,?,,"HANSCH,C ET AL. (1995)",4.14
103927,2524-52-9,2524-52-9,[H]C1=C([H])C([H])=C([H])C(C(=O)OC([H])([H])C([H])([H])[H])=N1,"PICOLINIC ACID, ETHYL ESTER",Ethyl picolinate,Ethyl pyridine-2-carboxylate,8437,DTXSID9062489,CCOC(=O)c1cccc[n]1,"InChI=1S/C8H9NO2/c1-2-11-8(10)7-5-3-4-6-9-7/h3-6H,2H2,1H3",FQYYIPZPELSLDK-UHFFFAOYSA-N,?,,"HANSCH,C ET AL. (1995)",0.87
103928,2524-78-9,2524-78-9,[H]C1=C([H])C(N([H])C(=O)C([H])([H])[H])=C([H])C(SC([H])([H])[H])=C1[H],"ACETAMIDE, N-[3-(METHYLTHIO)PHENYL]-",,,8438,DTXSID80879519,CC(=O)Nc1cc(ccc1)SC,"InChI=1S/C9H11NOS/c1-7(11)10-8-4-3-5-9(6-8)12-2/h3-6H,1-2H3,(H,10,11)",DFRHNWNBWOIBRW-UHFFFAOYSA-N,?,,POMONA (1987),2.14
103929,2525-05-5,2525-05-5,[H]OC1=C(O[H])C([H])=C(C([H])([H])C([H])([H])C([H])([H])C([H])([H])[H])C([H])=C1[H],"1,2-BENZENEDIOL, 4-BUTYL-",PUBCHEM_14368879,C10H14O2,8439,DTXSID10559498,CCCCc1cc(O)c(O)cc1,"InChI=1S/C10H14O2/c1-2-3-4-8-5-6-9(11)10(12)7-8/h5-7,11-12H,2-4H2,1H3",LAVPWYRENKSWJM-UHFFFAOYSA-N,?,,"NAITO,Y ET AL. (1991)",2.96
103931,2527-99-3,2527-99-3,[H]C1=C(Br)OC(C(=O)OC([H])([H])[H])=C1[H],"2-FURANCARBOXYLIC ACID, 5-BROMO-, METHYL ESTER",Methyl 5-bromofuran-2-carboxylate,C6H5BrO3,8441,DTXSID50344805,COC(=O)c1ccc(Br)o1,"InChI=1S/C6H5BrO3/c1-9-6(8)4-2-3-5(7)10-4/h2-3H,1H3",FBPIDMAELBIRLE-UHFFFAOYSA-N,?,,"YAMAGAMI,C ET AL. (1991)",1.84
103932,2528-36-1,NOCAS_24957,[H]C1=C([H])C([H])=C(OP(=O)(OC([H])([H])C([H])([H])C([H])([H])C([H])([H])[H])OC([H])([H])C([H])([H])C([H])([H])C([H])([H])[H])C([H])=C1[H],DIBUTYL PHENYL PHOSPHATE,Dibutyl phenyl phosphate,dibutyl phenyl phosphate,8442,DTXSID2024957,CCCCOP(=O)(Oc1ccccc1)OCCCC,"InChI=1S/C14H23O4P/c1-3-5-12-16-19(15,17-13-6-4-2)18-14-10-8-7-9-11-14/h7-11H,3-6,12-13H2,1-2H3",YICSVBJRVMLQNS-UHFFFAOYSA-N,?,,"HANSCH,C ET AL. (1995)",4.27
103933,2530-26-9,2530-26-9,[H]C1=NC([H])=C([N+](=O)[O-])C([H])=C1[H],3-NITROPYRIDINE,3-Nitropyridine,3-Nitropyridine,8443,DTXSID00179947,[O-][N+](=O)c1c[n]ccc1,InChI=1S/C5H4N2O2/c8-7(9)5-2-1-3-6-4-5/h1-4H,QLILRKBRWXALIE-UHFFFAOYSA-N,?,,"HANSCH,C ET AL. (1995)",0.6
103935,2534-65-8,2534-65-8,CCCCCCCCCC[N+]1=CC=CC=C1,DECYLPYRIDINIUM BROMIDE,2534-65-8,C15H26BrN,8445,DTXSID90457382,CCCCCCCCCC[n+]1ccccc1,"InChI=1S/C15H26N/c1-2-3-4-5-6-7-8-10-13-16-14-11-9-12-15-16/h9,11-12,14-15H,2-8,10,13H2,1H3/q+1",MFMBELVKZWEQOM-UHFFFAOYSA-N,[Br-],3,"HANSCH,C & LEO,AJ (1985)",-0.72
103937,2534-77-2,2534-77-2,[H]C1([H])C([H])([H])C2([H])C([H])([H])C1([H])C([H])([H])C2([H])Br,exo-2-Bromonorbornane,,,8446,DTXSID20878960,BrC1CC2CC1CC2,"InChI=1S/C7H11Br/c8-7-4-5-1-2-6(7)3-5/h5-7H,1-4H2",QXYOAWHKJRWNID-UHFFFAOYSA-N,?,,"LODGE,KB (1999)",3.54
103938,2537-29-3,NOCAS_862980,[H]OC([H])(C([H])([H])[H])C([H])([H])C1(C([H])([H])C([H])=C([H])[H])C(=O)N([H])C(=O)N([H])C1=O,"BARBITURIC ACID,5(2HOPR)5-ALLYL",,,8447,DTXSID20862980,CC(O)CC1(CC=C)C(=O)NC(=O)NC1=O,"InChI=1S/C10H14N2O4/c1-3-4-10(5-6(2)13)7(14)11-9(16)12-8(10)15/h3,6,13H,1,4-5H2,2H3,(H2,11,12,14,15,16)",VNLMRPAWAMPLNZ-UHFFFAOYSA-N,?,,"WITTEKIND,HH ET AL. (1988)",-0.05
103940,2539-26-6,2539-26-6,[H]OC1=C(OC([H])([H])[H])C(Cl)=C(Cl)C(Cl)=C1OC([H])([H])[H],"3,4,5-TRICL-2,6-MEO PHENOL",Trichlorosyringol,"3,4,5-Trichloro-2,6-dimethoxyphenol",8449,DTXSID7074246,COc1c(O)c(OC)c(Cl)c(Cl)c1Cl,"InChI=1S/C8H7Cl3O3/c1-13-7-4(10)3(9)5(11)8(14-2)6(7)12/h12H,1-2H3",ZZCSBXFJFLSDRR-UHFFFAOYSA-N,?,,"HANSCH,C ET AL. (1995)",3.74
103941,2540-82-1,2540-82-1,[H]C(=O)N(C(=O)C([H])([H])SP(=S)(OC([H])([H])[H])OC([H])([H])[H])C([H])([H])[H],FORMOTHION,Formothion,"S-{2-[formyl(methyl)amino]-2-oxoethyl} O,O-dimethyl phosphorodithioate",8450,DTXSID4041991,CN(C=O)C(=O)CSP(=S)(OC)OC,"InChI=1S/C6H12NO4PS2/c1-7(5-8)6(9)4-14-12(13,10-2)11-3/h5H,4H2,1-3H3",AIKKULXCBHRFOS-UHFFFAOYSA-N,?,,"HANSCH,C ET AL. (1995)",1.48
103942,2550-28-9,2550-28-9,[H]C#CC([H])([H])C([H])([H])C(=O)C([H])([H])[H],1-HEXYN-5-ONE,5-Hexyn-2-one,hex-5-yn-2-one,8451,DTXSID50180189,CC(=O)CCC#C,"InChI=1S/C6H8O/c1-3-4-5-6(2)7/h1H,4-5H2,2H3",MQVQPQJPNZJTAY-UHFFFAOYSA-N,?,,"HANSCH,C ET AL. (1995)",0.58
103945,2557-81-5,2557-81-5,[H]C1=C([H])C([H])=C(S(F)(F)(F)(F)F)C([H])=C1[H],PHENYLSULFUR PENTAFLUORIDE,Phenylsulfur pentafluoride,C6H5F5S,8453,DTXSID90433126,FS(F)(F)(F)(F)c1ccccc1,"InChI=1S/C6H5F5S/c7-12(8,9,10,11)6-4-2-1-3-5-6/h1-5H",DMNYFEWFSFTYEL-UHFFFAOYSA-N,?,,"HANSCH,C ET AL. (1995)",3.36
103946,2558-30-7,2558-30-7,[H]C1=C([H])C([H])=C(C2=NC([H])([H])C(=O)N([H])C3=C([H])C([H])=C([N+](=O)[O-])C([H])=C23)C(F)=C1[H],"1,4-BENZODIAZPIN-2-ONE,5-FPH,7NO2",Norflunitrazepam,"5-(2-fluorophenyl)-7-nitro-1,3-dihydro-1,4-benzodiazepin-2-one",8454,DTXSID30180268,[O-][N+](=O)c1cc2C(=NCC(=O)Nc2cc1)c1ccccc1F,"InChI=1S/C15H10FN3O3/c16-12-4-2-1-3-10(12)15-11-7-9(19(21)22)5-6-13(11)18-14(20)8-17-15/h1-7H,8H2,(H,18,20)",KNGIGRDYBQPXKQ-UHFFFAOYSA-N,?,,"HANSCH,C & LEO,AJ (1985)",2.15
103947,2564-83-2,2564-83-2,[H]ON1C(C([H])([H])[H])(C([H])([H])[H])C([H])([H])C([H])([H])C([H])([H])C1(C([H])([H])[H])C([H])([H])[H],"1-PIPERIDINYLOXY, 2,2,6,6-TETRAMETHYL-","1-Piperidinyloxy, 2,2,6,6-tetramethyl-",,8455,DTXSID2073300,CC1(C)CCCC(C)(C)N1O,"InChI=1S/C9H19NO/c1-8(2)6-5-7-9(3,4)10(8)11/h11H,5-7H2,1-4H3",VUZNLSBZRVZGIK-UHFFFAOYSA-N,?,,BIOBYTE (1995),1.85